LAMMPS data file. CGCMM style. atom_style full generated by VMD/TopoTools v1.7 on Sun Sep 29 19:47:05 EDT 2019
 6912 atoms
 0 bonds
 0 angles
 0 dihedrals
 0 impropers
 1 atom types
 0 bond types
 0 angle types
 0 dihedral types
 0 improper types
 -11.022899 11.061200  xlo xhi
 -11.085799 10.998300  ylo yhi
 -11.162501 10.921600  zlo zhi

# Pair Coeffs
#
# 1  1

 Masses

 1 12.000000 # 1

 Atoms # full

1 1 1 0.000000 -1.828980 5.555950 0.442592 # 1 UNK
2 1 1 0.000000 1.045850 -2.524580 -4.074790 # 1 UNK
3 1 1 0.000000 -1.207230 -7.071050 4.236330 # 1 UNK
4 1 1 0.000000 4.919290 -10.070800 -4.549750 # 1 UNK
5 1 1 0.000000 5.036830 8.113330 -7.243840 # 1 UNK
6 1 1 0.000000 -2.839930 1.303490 -1.417970 # 1 UNK
7 1 1 0.000000 -1.844360 -5.178130 3.979360 # 1 UNK
8 1 1 0.000000 -4.273280 0.025788 10.486500 # 1 UNK
9 1 1 0.000000 4.503440 -10.655600 -5.068130 # 1 UNK
10 1 1 0.000000 -9.458270 8.149140 -9.218870 # 1 UNK
11 1 1 0.000000 5.331890 -4.650270 -1.559510 # 1 UNK
12 1 1 0.000000 3.426540 -2.755920 7.085370 # 1 UNK
13 1 1 0.000000 2.501820 -1.466520 0.063675 # 1 UNK
14 1 1 0.000000 6.446230 5.679030 11.061400 # 1 UNK
15 1 1 0.000000 3.404450 2.711440 2.874610 # 1 UNK
16 1 1 0.000000 0.621542 -0.972312 5.144840 # 1 UNK
17 1 1 0.000000 9.915290 5.782750 6.007000 # 1 UNK
18 1 1 0.000000 -0.968109 10.268200 3.337570 # 1 UNK
19 1 1 0.000000 2.197950 -6.245660 9.465770 # 1 UNK
20 1 1 0.000000 9.943710 -6.692440 0.141465 # 1 UNK
21 1 1 0.000000 -7.632520 -6.267560 -1.317410 # 1 UNK
22 1 1 0.000000 9.076070 10.764200 0.037866 # 1 UNK
23 1 1 0.000000 8.780970 6.499750 7.014910 # 1 UNK
24 1 1 0.000000 9.235890 -5.133600 -8.930180 # 1 UNK
25 1 1 0.000000 7.040610 -5.825870 1.222770 # 1 UNK
26 1 1 0.000000 3.820570 -4.234930 -4.147830 # 1 UNK
27 1 1 0.000000 -7.409100 -5.335420 7.322700 # 1 UNK
28 1 1 0.000000 -5.592300 8.558100 2.879770 # 1 UNK
29 1 1 0.000000 8.695010 8.760910 3.458190 # 1 UNK
30 1 1 0.000000 -5.860350 -10.128300 8.097320 # 1 UNK
31 1 1 0.000000 1.933030 8.511440 -8.657130 # 1 UNK
32 1 1 0.000000 -5.864490 -5.498600 -6.406370 # 1 UNK
33 1 1 0.000000 -2.081210 7.113880 1.593740 # 1 UNK
34 1 1 0.000000 7.197570 -8.511970 9.481900 # 1 UNK
35 1 1 0.000000 -5.201190 1.526140 -4.287910 # 1 UNK
36 1 1 0.000000 3.814940 3.343470 8.880760 # 1 UNK
37 1 1 0.000000 -5.756350 -1.219140 2.149750 # 1 UNK
38 1 1 0.000000 -0.044281 10.667000 10.355200 # 1 UNK
39 1 1 0.000000 -5.074920 -6.542240 9.947470 # 1 UNK
40 1 1 0.000000 -9.032840 2.677320 -6.040470 # 1 UNK
41 1 1 0.000000 4.093990 -8.846210 -9.599240 # 1 UNK
42 1 1 0.000000 -0.375061 2.381450 3.893270 # 1 UNK
43 1 1 0.000000 2.854790 9.528340 -0.825806 # 1 UNK
44 1 1 0.000000 -7.623840 -7.999070 2.895590 # 1 UNK
45 1 1 0.000000 -1.585320 -9.763790 -6.986970 # 1 UNK
46 1 1 0.000000 -9.416570 6.426370 -2.682630 # 1 UNK
47 1 1 0.000000 -4.382720 4.886020 4.359500 # 1 UNK
48 1 1 0.000000 -8.712160 0.863082 -9.748810 # 1 UNK
49 1 1 0.000000 -6.960420 4.467550 -3.147630 # 1 UNK
50 1 1 0.000000 -5.616140 9.471600 -1.270360 # 1 UNK
51 1 1 0.000000 9.451510 3.060350 9.969260 # 1 UNK
52 1 1 0.000000 6.606430 -1.435620 2.816720 # 1 UNK
53 1 1 0.000000 -10.612400 8.957080 10.278800 # 1 UNK
54 1 1 0.000000 -8.523300 1.727190 -3.664870 # 1 UNK
55 1 1 0.000000 3.705250 2.169550 -0.779066 # 1 UNK
56 1 1 0.000000 -1.141700 1.903290 8.860980 # 1 UNK
57 1 1 0.000000 9.021530 2.209420 8.512500 # 1 UNK
58 1 1 0.000000 6.007070 -7.488820 3.999860 # 1 UNK
59 1 1 0.000000 -5.503490 -7.351750 9.924080 # 1 UNK
60 1 1 0.000000 -4.856870 -10.628700 0.285675 # 1 UNK
61 1 1 0.000000 -3.566250 4.625890 -5.066950 # 1 UNK
62 1 1 0.000000 -4.498430 10.635900 3.383330 # 1 UNK
63 1 1 0.000000 -2.257120 -2.756220 -5.969420 # 1 UNK
64 1 1 0.000000 -7.531140 -3.034140 10.328100 # 1 UNK
65 1 1 0.000000 -6.023940 5.132260 -7.471670 # 1 UNK
66 1 1 0.000000 3.124920 4.468680 8.555580 # 1 UNK
67 1 1 0.000000 6.836560 1.675930 -9.063480 # 1 UNK
68 1 1 0.000000 -9.642710 7.705000 -7.934600 # 1 UNK
69 1 1 0.000000 -6.685910 -7.338280 -1.814220 # 1 UNK
70 1 1 0.000000 1.358120 4.214700 3.387800 # 1 UNK
71 1 1 0.000000 -3.835230 -1.482390 -8.993070 # 1 UNK
72 1 1 0.000000 5.336640 -2.220020 5.615880 # 1 UNK
73 1 1 0.000000 0.041420 -8.339470 8.880920 # 1 UNK
74 1 1 0.000000 9.525740 2.162820 -10.934100 # 1 UNK
75 1 1 0.000000 -7.049660 -9.822580 -4.291310 # 1 UNK
76 1 1 0.000000 -1.981170 5.634400 -4.008020 # 1 UNK
77 1 1 0.000000 -8.749240 8.738280 8.956180 # 1 UNK
78 1 1 0.000000 -2.819990 1.932990 5.395420 # 1 UNK
79 1 1 0.000000 4.729500 -3.858780 3.726150 # 1 UNK
80 1 1 0.000000 -5.760550 10.437300 -6.959500 # 1 UNK
81 1 1 0.000000 2.940870 0.730123 7.860510 # 1 UNK
82 1 1 0.000000 6.390670 -6.869200 -3.149620 # 1 UNK
83 1 1 0.000000 -5.907940 9.574550 9.830830 # 1 UNK
84 1 1 0.000000 -1.780880 -1.069540 6.697620 # 1 UNK
85 1 1 0.000000 10.631200 -1.010330 11.135100 # 1 UNK
86 1 1 0.000000 -3.394670 3.529980 3.444850 # 1 UNK
87 1 1 0.000000 -10.750400 -7.724500 -5.201910 # 1 UNK
88 1 1 0.000000 6.571880 -4.259070 -1.280050 # 1 UNK
89 1 1 0.000000 9.168600 0.123995 -1.822740 # 1 UNK
90 1 1 0.000000 -10.348300 3.645110 6.973750 # 1 UNK
91 1 1 0.000000 -3.527740 -9.543990 2.945080 # 1 UNK
92 1 1 0.000000 3.995790 6.427550 5.635930 # 1 UNK
93 1 1 0.000000 8.322120 10.413400 -3.588790 # 1 UNK
94 1 1 0.000000 -10.371000 7.601150 -5.653880 # 1 UNK
95 1 1 0.000000 2.184370 -7.378060 -5.176990 # 1 UNK
96 1 1 0.000000 -5.851670 0.082026 -7.486390 # 1 UNK
97 1 1 0.000000 -10.197700 -3.319690 -0.088695 # 1 UNK
98 1 1 0.000000 -1.281250 10.101800 -9.848750 # 1 UNK
99 1 1 0.000000 -2.721830 -5.526780 -9.363950 # 1 UNK
100 1 1 0.000000 -4.138050 -1.875370 7.574800 # 1 UNK
101 1 1 0.000000 10.735700 -8.689130 -0.953475 # 1 UNK
102 1 1 0.000000 6.671340 -5.543970 -0.769992 # 1 UNK
103 1 1 0.000000 -3.573240 6.023130 5.194900 # 1 UNK
104 1 1 0.000000 -6.558490 -0.361173 0.105413 # 1 UNK
105 1 1 0.000000 1.156280 -3.684530 -8.722870 # 1 UNK
106 1 1 0.000000 9.424810 -1.845510 -6.920970 # 1 UNK
107 1 1 0.000000 -2.255380 -3.353940 8.068340 # 1 UNK
108 1 1 0.000000 5.631470 10.169300 -4.665660 # 1 UNK
109 1 1 0.000000 -5.036180 -4.666570 -2.518030 # 1 UNK
110 1 1 0.000000 4.707820 3.942440 10.540100 # 1 UNK
111 1 1 0.000000 8.538700 4.753300 -3.708580 # 1 UNK
112 1 1 0.000000 1.441070 1.746510 -9.665200 # 1 UNK
113 1 1 0.000000 -7.883370 -5.176650 -9.011460 # 1 UNK
114 1 1 0.000000 3.526170 9.656610 4.654750 # 1 UNK
115 1 1 0.000000 5.800580 3.181260 -10.545000 # 1 UNK
116 1 1 0.000000 7.100080 -4.021070 -6.692610 # 1 UNK
117 1 1 0.000000 -10.040500 -0.996000 9.917420 # 1 UNK
118 1 1 0.000000 5.799440 0.270675 7.208430 # 1 UNK
119 1 1 0.000000 -3.593490 7.906350 8.332500 # 1 UNK
120 1 1 0.000000 -9.242260 -5.534450 10.913000 # 1 UNK
121 1 1 0.000000 7.240360 10.178700 -5.545350 # 1 UNK
122 1 1 0.000000 0.311884 -10.798500 8.360600 # 1 UNK
123 1 1 0.000000 2.892520 -9.626460 -5.253140 # 1 UNK
124 1 1 0.000000 -9.014030 -0.873430 1.754580 # 1 UNK
125 1 1 0.000000 -3.926620 2.565150 0.911989 # 1 UNK
126 1 1 0.000000 5.405910 -7.759660 6.172620 # 1 UNK
127 1 1 0.000000 -6.891760 9.274910 -8.222600 # 1 UNK
128 1 1 0.000000 2.836850 -3.546960 -9.219720 # 1 UNK
129 1 1 0.000000 10.647500 10.450700 -0.308545 # 1 UNK
130 1 1 0.000000 -9.685860 1.008760 -1.525370 # 1 UNK
131 1 1 0.000000 -5.516540 -9.205970 -3.910220 # 1 UNK
132 1 1 0.000000 10.111200 -4.960800 -8.504010 # 1 UNK
133 1 1 0.000000 -7.195500 -2.845500 0.114108 # 1 UNK
134 1 1 0.000000 -4.352770 -9.070930 -7.272130 # 1 UNK
135 1 1 0.000000 -3.210040 4.255570 1.690670 # 1 UNK
136 1 1 0.000000 10.036000 7.835880 -1.267920 # 1 UNK
137 1 1 0.000000 0.972081 -0.391586 6.901970 # 1 UNK
138 1 1 0.000000 -3.581960 -8.418360 -10.657200 # 1 UNK
139 1 1 0.000000 9.524830 3.347110 -7.161310 # 1 UNK
140 1 1 0.000000 -8.013610 10.763700 -0.584805 # 1 UNK
141 1 1 0.000000 8.662610 1.671130 -8.547410 # 1 UNK
142 1 1 0.000000 -7.081640 -1.516070 -6.964990 # 1 UNK
143 1 1 0.000000 -5.154870 8.559560 -3.151000 # 1 UNK
144 1 1 0.000000 0.009415 -4.519810 -5.366200 # 1 UNK
145 1 1 0.000000 3.567300 8.414830 -2.529670 # 1 UNK
146 1 1 0.000000 5.877220 7.062910 3.190560 # 1 UNK
147 1 1 0.000000 10.513900 -4.965640 3.194590 # 1 UNK
148 1 1 0.000000 -5.586610 -6.695870 5.129170 # 1 UNK
149 1 1 0.000000 -0.025951 -10.960600 -2.285780 # 1 UNK
150 1 1 0.000000 1.518490 0.602120 -10.686500 # 1 UNK
151 1 1 0.000000 -3.386250 4.638650 -0.122630 # 1 UNK
152 1 1 0.000000 4.060740 -7.141940 0.554603 # 1 UNK
153 1 1 0.000000 -8.112270 -0.523837 8.078060 # 1 UNK
154 1 1 0.000000 2.197400 -2.543710 1.887140 # 1 UNK
155 1 1 0.000000 -1.803760 -2.862730 10.639500 # 1 UNK
156 1 1 0.000000 -1.582760 -11.013300 1.466680 # 1 UNK
157 1 1 0.000000 4.818910 9.570220 -8.536070 # 1 UNK
158 1 1 0.000000 -3.253740 9.487740 -8.478160 # 1 UNK
159 1 1 0.000000 0.393954 10.422900 -0.330970 # 1 UNK
160 1 1 0.000000 -1.700660 7.257760 -5.803920 # 1 UNK
161 1 1 0.000000 6.713700 5.319530 3.164490 # 1 UNK
162 1 1 0.000000 5.197580 8.770730 7.826350 # 1 UNK
163 1 1 0.000000 0.522120 8.260000 -6.246730 # 1 UNK
164 1 1 0.000000 3.231610 -4.087920 -10.801300 # 1 UNK
165 1 1 0.000000 -3.542710 5.407690 7.142090 # 1 UNK
166 1 1 0.000000 5.517740 -0.759502 -1.807530 # 1 UNK
167 1 1 0.000000 -8.731810 -7.107870 -7.661610 # 1 UNK
168 1 1 0.000000 -2.836400 0.800301 -4.854150 # 1 UNK
169 1 1 0.000000 -7.369400 -2.341430 -7.100460 # 1 UNK
170 1 1 0.000000 -1.484990 5.600230 -4.618460 # 1 UNK
171 1 1 0.000000 2.663930 0.836259 -3.714610 # 1 UNK
172 1 1 0.000000 3.557270 -3.211960 1.139990 # 1 UNK
173 1 1 0.000000 5.817770 2.964880 4.189980 # 1 UNK
174 1 1 0.000000 -7.445300 5.955490 9.358090 # 1 UNK
175 1 1 0.000000 1.181230 -8.859360 -0.779334 # 1 UNK
176 1 1 0.000000 -9.899730 -10.369500 1.768270 # 1 UNK
177 1 1 0.000000 -9.993930 -5.378650 4.975850 # 1 UNK
178 1 1 0.000000 8.612170 -0.912728 3.402430 # 1 UNK
179 1 1 0.000000 2.833420 8.375650 -10.438300 # 1 UNK
180 1 1 0.000000 -5.463030 8.791590 -3.975570 # 1 UNK
181 1 1 0.000000 10.338700 -4.302980 -9.071450 # 1 UNK
182 1 1 0.000000 1.738090 -6.624100 1.885760 # 1 UNK
183 1 1 0.000000 7.021300 7.603140 -4.528940 # 1 UNK
184 1 1 0.000000 9.041010 7.172550 -7.307680 # 1 UNK
185 1 1 0.000000 0.491435 1.797440 7.061220 # 1 UNK
186 1 1 0.000000 6.494490 -9.467560 -8.285290 # 1 UNK
187 1 1 0.000000 -2.013420 0.610161 -8.975170 # 1 UNK
188 1 1 0.000000 7.918670 0.672180 -2.096650 # 1 UNK
189 1 1 0.000000 -1.870460 -2.008600 -6.368910 # 1 UNK
190 1 1 0.000000 1.253610 -8.159050 8.262220 # 1 UNK
191 1 1 0.000000 3.821570 -0.481335 -1.916220 # 1 UNK
192 1 1 0.000000 -7.890920 -6.910040 -7.015510 # 1 UNK
193 1 1 0.000000 10.676500 6.430750 3.040820 # 1 UNK
194 1 1 0.000000 4.841410 -2.417240 -7.233100 # 1 UNK
195 1 1 0.000000 7.543650 -6.981870 4.417000 # 1 UNK
196 1 1 0.000000 8.543280 4.734540 -9.866190 # 1 UNK
197 1 1 0.000000 1.207260 9.690170 9.725540 # 1 UNK
198 1 1 0.000000 11.052800 -4.447020 -4.766940 # 1 UNK
199 1 1 0.000000 4.269630 3.756660 -4.664650 # 1 UNK
200 1 1 0.000000 3.230130 3.142450 -10.050200 # 1 UNK
201 1 1 0.000000 -6.506340 9.261210 6.844180 # 1 UNK
202 1 1 0.000000 8.676820 8.742980 4.465070 # 1 UNK
203 1 1 0.000000 2.932550 9.649610 -10.361100 # 1 UNK
204 1 1 0.000000 -10.861800 8.973120 -2.489270 # 1 UNK
205 1 1 0.000000 -4.294660 -5.903030 2.518420 # 1 UNK
206 1 1 0.000000 -1.048150 -4.990550 7.485380 # 1 UNK
207 1 1 0.000000 6.386970 4.499830 -9.908910 # 1 UNK
208 1 1 0.000000 10.057700 -9.066220 3.070340 # 1 UNK
209 1 1 0.000000 -4.072300 -5.436060 -9.700670 # 1 UNK
210 1 1 0.000000 2.762730 5.943120 -10.487900 # 1 UNK
211 1 1 0.000000 7.366850 5.870270 -2.337090 # 1 UNK
212 1 1 0.000000 7.223060 -1.201940 2.394080 # 1 UNK
213 1 1 0.000000 7.831380 -7.523650 5.861340 # 1 UNK
214 1 1 0.000000 7.886230 0.392414 4.418240 # 1 UNK
215 1 1 0.000000 0.280180 -5.569360 9.217960 # 1 UNK
216 1 1 0.000000 10.615900 -5.853990 -6.163170 # 1 UNK
217 1 1 0.000000 -3.108760 1.482790 8.786670 # 1 UNK
218 1 1 0.000000 2.850240 10.023900 -8.265580 # 1 UNK
219 1 1 0.000000 -0.724323 11.076900 -1.604000 # 1 UNK
220 1 1 0.000000 8.460470 5.932180 2.685330 # 1 UNK
221 1 1 0.000000 -4.106240 4.276150 -0.555587 # 1 UNK
222 1 1 0.000000 -9.830820 -3.889600 0.859258 # 1 UNK
223 1 1 0.000000 -4.809580 8.482720 -2.212240 # 1 UNK
224 1 1 0.000000 -7.447060 5.976860 7.305380 # 1 UNK
225 1 1 0.000000 -5.617960 1.246730 3.397350 # 1 UNK
226 1 1 0.000000 2.148580 8.305540 -4.921390 # 1 UNK
227 1 1 0.000000 -2.623300 4.479590 3.058770 # 1 UNK
228 1 1 0.000000 5.081620 5.289630 9.006290 # 1 UNK
229 1 1 0.000000 -9.858110 -7.387860 0.741647 # 1 UNK
230 1 1 0.000000 -3.251210 -2.670540 9.388200 # 1 UNK
231 1 1 0.000000 6.509930 1.071550 -8.514510 # 1 UNK
232 1 1 0.000000 -1.277700 -7.265760 -3.345890 # 1 UNK
233 1 1 0.000000 -10.310500 10.333600 10.322700 # 1 UNK
234 1 1 0.000000 -8.320070 -0.466253 -3.210990 # 1 UNK
235 1 1 0.000000 -0.956386 1.209600 -0.780450 # 1 UNK
236 1 1 0.000000 -0.777388 5.518150 2.500490 # 1 UNK
237 1 1 0.000000 6.546580 10.478500 10.879100 # 1 UNK
238 1 1 0.000000 -7.203670 -6.736480 3.446410 # 1 UNK
239 1 1 0.000000 -5.159790 7.240150 6.740590 # 1 UNK
240 1 1 0.000000 -7.326280 -7.726890 -8.916780 # 1 UNK
241 1 1 0.000000 9.352090 5.005630 0.372583 # 1 UNK
242 1 1 0.000000 -8.236130 8.364220 2.772040 # 1 UNK
243 1 1 0.000000 -5.180680 8.316040 -4.710330 # 1 UNK
244 1 1 0.000000 8.642390 10.707000 4.075310 # 1 UNK
245 1 1 0.000000 -7.010680 -0.067483 -9.666160 # 1 UNK
246 1 1 0.000000 4.493270 -8.684110 -4.224880 # 1 UNK
247 1 1 0.000000 -3.004100 -5.533220 7.655190 # 1 UNK
248 1 1 0.000000 5.353630 9.839420 1.612760 # 1 UNK
249 1 1 0.000000 5.400690 -8.551580 0.287093 # 1 UNK
250 1 1 0.000000 -3.398060 5.503290 -7.839330 # 1 UNK
251 1 1 0.000000 -9.458480 -3.778220 -9.736030 # 1 UNK
252 1 1 0.000000 -4.771970 -2.617260 -8.022990 # 1 UNK
253 1 1 0.000000 -6.148230 0.796331 -7.457580 # 1 UNK
254 1 1 0.000000 0.457280 7.629640 2.541560 # 1 UNK
255 1 1 0.000000 6.107430 -7.593760 5.891320 # 1 UNK
256 1 1 0.000000 4.970840 -9.352720 -4.800710 # 1 UNK
257 1 1 0.000000 -5.680130 3.467950 -9.219140 # 1 UNK
258 1 1 0.000000 0.053103 -4.183170 1.872960 # 1 UNK
259 1 1 0.000000 8.272340 0.683776 -10.912400 # 1 UNK
260 1 1 0.000000 -5.990740 -1.995520 -5.646890 # 1 UNK
261 1 1 0.000000 -5.637420 -8.094680 -8.494520 # 1 UNK
262 1 1 0.000000 -2.908800 5.132610 -2.894600 # 1 UNK
263 1 1 0.000000 -2.986100 7.824050 4.890720 # 1 UNK
264 1 1 0.000000 -10.732700 8.244080 10.955800 # 1 UNK
265 1 1 0.000000 -4.473620 7.407980 4.563040 # 1 UNK
266 1 1 0.000000 2.841850 9.601420 8.939080 # 1 UNK
267 1 1 0.000000 6.513740 -6.963580 -6.060060 # 1 UNK
268 1 1 0.000000 -4.729220 -4.436480 6.017830 # 1 UNK
269 1 1 0.000000 -9.840140 0.186543 -3.881420 # 1 UNK
270 1 1 0.000000 9.010810 -10.591700 9.186890 # 1 UNK
271 1 1 0.000000 1.549150 0.401807 -1.401020 # 1 UNK
272 1 1 0.000000 -0.820986 6.681900 -8.360960 # 1 UNK
273 1 1 0.000000 10.163200 -8.145740 -5.548850 # 1 UNK
274 1 1 0.000000 -8.354250 0.474280 6.407980 # 1 UNK
275 1 1 0.000000 -1.535880 2.895210 -3.662370 # 1 UNK
276 1 1 0.000000 6.877930 -6.479870 -1.135950 # 1 UNK
277 1 1 0.000000 7.753740 -5.686130 -9.571250 # 1 UNK
278 1 1 0.000000 4.138830 -7.328040 -9.119670 # 1 UNK
279 1 1 0.000000 -9.687450 -2.372980 4.408850 # 1 UNK
280 1 1 0.000000 -0.729878 -5.792970 0.099678 # 1 UNK
281 1 1 0.000000 -6.817010 7.162090 1.143840 # 1 UNK
282 1 1 0.000000 -3.824380 -0.401173 0.322571 # 1 UNK
283 1 1 0.000000 -10.773200 -4.687490 1.446030 # 1 UNK
284 1 1 0.000000 9.615480 8.854260 7.655300 # 1 UNK
285 1 1 0.000000 5.492990 4.650040 -3.416880 # 1 UNK
286 1 1 0.000000 -9.213820 -5.596930 -2.713630 # 1 UNK
287 1 1 0.000000 9.024040 -9.781450 -9.437440 # 1 UNK
288 1 1 0.000000 2.747580 10.662400 1.146630 # 1 UNK
289 1 1 0.000000 1.803860 8.281480 8.218310 # 1 UNK
290 1 1 0.000000 -7.374740 1.193910 0.141334 # 1 UNK
291 1 1 0.000000 -9.948080 1.880140 -10.999100 # 1 UNK
292 1 1 0.000000 6.837520 -4.240280 7.841190 # 1 UNK
293 1 1 0.000000 -10.436400 5.112580 -1.349820 # 1 UNK
294 1 1 0.000000 5.435750 3.360440 2.772480 # 1 UNK
295 1 1 0.000000 0.741989 9.732870 3.979600 # 1 UNK
296 1 1 0.000000 0.791226 -1.583330 -4.453420 # 1 UNK
297 1 1 0.000000 7.549330 1.037040 4.738020 # 1 UNK
298 1 1 0.000000 -2.716670 4.354040 5.251250 # 1 UNK
299 1 1 0.000000 6.790150 1.096230 -9.653720 # 1 UNK
300 1 1 0.000000 7.378420 4.265000 10.374900 # 1 UNK
301 1 1 0.000000 -3.756220 -10.222100 2.541490 # 1 UNK
302 1 1 0.000000 -6.604440 -2.379970 -0.562731 # 1 UNK
303 1 1 0.000000 3.691000 -6.560790 1.571970 # 1 UNK
304 1 1 0.000000 10.713600 -8.873330 2.601800 # 1 UNK
305 1 1 0.000000 -5.604520 -7.371160 7.906220 # 1 UNK
306 1 1 0.000000 4.977310 4.359480 -3.996060 # 1 UNK
307 1 1 0.000000 2.643210 0.138886 9.866590 # 1 UNK
308 1 1 0.000000 0.158106 6.965800 7.698870 # 1 UNK
309 1 1 0.000000 -0.985994 -8.200350 4.637680 # 1 UNK
310 1 1 0.000000 6.113360 0.685709 3.518400 # 1 UNK
311 1 1 0.000000 -1.893380 -6.695560 8.354950 # 1 UNK
312 1 1 0.000000 -4.123760 4.275410 1.499160 # 1 UNK
313 1 1 0.000000 0.285943 -2.135640 -0.848079 # 1 UNK
314 1 1 0.000000 -4.386780 4.501670 -7.893920 # 1 UNK
315 1 1 0.000000 9.194250 -0.132586 6.203200 # 1 UNK
316 1 1 0.000000 1.547720 4.746140 -2.274300 # 1 UNK
317 1 1 0.000000 5.529100 -8.925780 -2.342950 # 1 UNK
318 1 1 0.000000 0.467591 -9.850150 0.385391 # 1 UNK
319 1 1 0.000000 -8.689310 -9.468980 -0.996987 # 1 UNK
320 1 1 0.000000 -9.240820 5.217950 1.431390 # 1 UNK
321 1 1 0.000000 1.632610 3.651840 -10.091900 # 1 UNK
322 1 1 0.000000 7.076750 5.344810 -3.193340 # 1 UNK
323 1 1 0.000000 -0.188290 -3.458220 -2.285680 # 1 UNK
324 1 1 0.000000 8.311610 -7.438250 -5.517060 # 1 UNK
325 1 1 0.000000 -4.105590 -9.985000 6.782240 # 1 UNK
326 1 1 0.000000 -10.842000 10.847500 -3.841670 # 1 UNK
327 1 1 0.000000 -8.004940 -4.749840 7.762610 # 1 UNK
328 1 1 0.000000 1.108520 4.658640 0.476791 # 1 UNK
329 1 1 0.000000 -2.351780 8.961940 -10.232400 # 1 UNK
330 1 1 0.000000 7.083270 7.762040 -2.470720 # 1 UNK
331 1 1 0.000000 8.989640 -4.297850 -0.888514 # 1 UNK
332 1 1 0.000000 -7.828810 6.120190 -3.723570 # 1 UNK
333 1 1 0.000000 -9.604740 -3.307340 9.527250 # 1 UNK
334 1 1 0.000000 1.574900 3.981140 9.476910 # 1 UNK
335 1 1 0.000000 9.432020 -2.322000 0.817934 # 1 UNK
336 1 1 0.000000 4.782980 -6.709160 -2.802620 # 1 UNK
337 1 1 0.000000 2.813100 0.587706 -5.736000 # 1 UNK
338 1 1 0.000000 3.005680 6.442470 -7.992970 # 1 UNK
339 1 1 0.000000 3.741710 4.273190 -4.993520 # 1 UNK
340 1 1 0.000000 -6.144470 -3.227880 -6.746290 # 1 UNK
341 1 1 0.000000 7.349550 3.971140 -4.901750 # 1 UNK
342 1 1 0.000000 -9.563820 2.388480 -7.313540 # 1 UNK
343 1 1 0.000000 -10.101900 -6.120190 5.849830 # 1 UNK
344 1 1 0.000000 4.472770 -6.986020 -5.105120 # 1 UNK
345 1 1 0.000000 -3.413040 -7.560450 7.690300 # 1 UNK
346 1 1 0.000000 0.219501 -1.114610 1.176480 # 1 UNK
347 1 1 0.000000 -4.645890 -0.890971 9.014470 # 1 UNK
348 1 1 0.000000 0.291329 -4.831140 0.105707 # 1 UNK
349 1 1 0.000000 -5.491940 8.121440 -10.436200 # 1 UNK
350 1 1 0.000000 -3.648320 -9.212990 6.851820 # 1 UNK
351 1 1 0.000000 9.803890 2.838810 10.776200 # 1 UNK
352 1 1 0.000000 0.074128 -7.008270 2.611530 # 1 UNK
353 1 1 0.000000 3.882650 -7.869870 -2.754560 # 1 UNK
354 1 1 0.000000 6.940000 1.979140 4.845050 # 1 UNK
355 1 1 0.000000 5.976420 8.109340 -0.322667 # 1 UNK
356 1 1 0.000000 -7.542160 -9.134090 -10.305500 # 1 UNK
357 1 1 0.000000 -10.726600 6.884020 -6.742680 # 1 UNK
358 1 1 0.000000 7.353260 4.855700 -5.415680 # 1 UNK
359 1 1 0.000000 2.037690 1.560180 -3.029600 # 1 UNK
360 1 1 0.000000 11.085900 1.437030 5.135550 # 1 UNK
361 1 1 0.000000 -0.870232 4.947470 4.271810 # 1 UNK
362 1 1 0.000000 -1.748970 9.433040 -1.329660 # 1 UNK
363 1 1 0.000000 -6.673320 10.005800 8.873870 # 1 UNK
364 1 1 0.000000 -4.723210 8.071860 0.813521 # 1 UNK
365 1 1 0.000000 -9.027160 -0.707006 8.221290 # 1 UNK
366 1 1 0.000000 -9.897780 -0.464544 7.636990 # 1 UNK
367 1 1 0.000000 9.293300 4.276830 2.451340 # 1 UNK
368 1 1 0.000000 -4.941580 4.509430 1.326330 # 1 UNK
369 1 1 0.000000 9.198230 0.950076 5.827710 # 1 UNK
370 1 1 0.000000 1.380000 5.655980 9.080710 # 1 UNK
371 1 1 0.000000 -7.977410 -5.451560 1.266810 # 1 UNK
372 1 1 0.000000 4.426110 10.904100 9.725600 # 1 UNK
373 1 1 0.000000 -8.754310 2.830150 4.773780 # 1 UNK
374 1 1 0.000000 10.815800 5.412790 2.645990 # 1 UNK
375 1 1 0.000000 -9.745150 -3.683280 6.994920 # 1 UNK
376 1 1 0.000000 8.139550 9.319620 1.201550 # 1 UNK
377 1 1 0.000000 -4.145980 5.889810 4.604840 # 1 UNK
378 1 1 0.000000 -6.071380 6.597720 7.786450 # 1 UNK
379 1 1 0.000000 0.379332 0.606777 7.029210 # 1 UNK
380 1 1 0.000000 7.869100 -7.366570 -3.304990 # 1 UNK
381 1 1 0.000000 -10.364500 -9.272730 0.607662 # 1 UNK
382 1 1 0.000000 7.515520 0.925322 -10.157800 # 1 UNK
383 1 1 0.000000 -2.596030 1.420630 8.072520 # 1 UNK
384 1 1 0.000000 -10.251700 -0.230257 7.052380 # 1 UNK
385 1 1 0.000000 -6.203990 -9.565960 -6.917050 # 1 UNK
386 1 1 0.000000 -3.502140 -7.633130 -8.545000 # 1 UNK
387 1 1 0.000000 7.162160 9.864360 -7.346080 # 1 UNK
388 1 1 0.000000 -8.043330 -7.252160 0.958297 # 1 UNK
389 1 1 0.000000 -8.019790 -10.744800 -6.428960 # 1 UNK
390 1 1 0.000000 8.746710 -1.059050 -6.063220 # 1 UNK
391 1 1 0.000000 9.356040 -3.556510 4.951790 # 1 UNK
392 1 1 0.000000 -0.827865 -8.322720 -8.384940 # 1 UNK
393 1 1 0.000000 7.814910 6.418990 8.678590 # 1 UNK
394 1 1 0.000000 -9.405610 -9.745530 -4.928780 # 1 UNK
395 1 1 0.000000 8.864830 10.258900 -6.627920 # 1 UNK
396 1 1 0.000000 -10.176100 -3.704680 5.687370 # 1 UNK
397 1 1 0.000000 8.651640 -2.617980 -9.802870 # 1 UNK
398 1 1 0.000000 -0.042218 -0.559615 -8.415720 # 1 UNK
399 1 1 0.000000 -2.433240 -2.719950 5.414870 # 1 UNK
400 1 1 0.000000 8.750440 9.153350 9.346420 # 1 UNK
401 1 1 0.000000 -8.298890 8.652540 8.307220 # 1 UNK
402 1 1 0.000000 -2.677500 0.295727 -6.793090 # 1 UNK
403 1 1 0.000000 -9.870270 5.555640 -2.912280 # 1 UNK
404 1 1 0.000000 7.548100 -3.732290 2.304360 # 1 UNK
405 1 1 0.000000 5.179450 -6.002960 10.460600 # 1 UNK
406 1 1 0.000000 -6.932600 3.984420 -0.761380 # 1 UNK
407 1 1 0.000000 9.140930 -7.034330 -1.746760 # 1 UNK
408 1 1 0.000000 -7.638990 9.578570 2.089360 # 1 UNK
409 1 1 0.000000 -7.514320 -3.784850 -9.508280 # 1 UNK
410 1 1 0.000000 2.208390 7.378340 -3.481960 # 1 UNK
411 1 1 0.000000 -5.391260 4.329070 2.910450 # 1 UNK
412 1 1 0.000000 -9.290470 -5.942800 -1.999890 # 1 UNK
413 1 1 0.000000 -2.659810 5.917560 9.055950 # 1 UNK
414 1 1 0.000000 -1.378090 -8.244550 5.483900 # 1 UNK
415 1 1 0.000000 -1.291270 10.267700 7.293630 # 1 UNK
416 1 1 0.000000 7.294770 -0.836820 5.607490 # 1 UNK
417 1 1 0.000000 8.180770 -2.951000 -3.638970 # 1 UNK
418 1 1 0.000000 -4.089720 -11.033000 -5.708520 # 1 UNK
419 1 1 0.000000 6.254200 -6.420790 7.711740 # 1 UNK
420 1 1 0.000000 10.989500 9.010470 -4.665600 # 1 UNK
421 1 1 0.000000 0.436654 -4.912340 -3.464620 # 1 UNK
422 1 1 0.000000 -9.990180 -2.258730 -0.879965 # 1 UNK
423 1 1 0.000000 3.580510 4.503290 -6.867700 # 1 UNK
424 1 1 0.000000 3.004620 5.323130 6.341540 # 1 UNK
425 1 1 0.000000 -1.593750 0.034747 7.090990 # 1 UNK
426 1 1 0.000000 6.138550 8.774460 -2.217100 # 1 UNK
427 1 1 0.000000 9.024820 6.403280 -2.053230 # 1 UNK
428 1 1 0.000000 -3.958550 7.930790 2.144880 # 1 UNK
429 1 1 0.000000 -4.100510 -8.986740 -2.638860 # 1 UNK
430 1 1 0.000000 -0.216696 0.645460 -0.814301 # 1 UNK
431 1 1 0.000000 8.638170 -1.731030 7.841830 # 1 UNK
432 1 1 0.000000 4.473030 7.105390 9.406050 # 1 UNK
433 1 1 0.000000 -0.041868 1.312340 6.860960 # 1 UNK
434 1 1 0.000000 5.178920 -10.159700 0.428396 # 1 UNK
435 1 1 0.000000 8.637280 -6.722240 -0.078083 # 1 UNK
436 1 1 0.000000 -10.778300 -6.687200 6.024460 # 1 UNK
437 1 1 0.000000 -8.086270 10.579500 -8.999140 # 1 UNK
438 1 1 0.000000 2.376650 4.005860 5.774250 # 1 UNK
439 1 1 0.000000 -4.142780 -1.181340 7.007040 # 1 UNK
440 1 1 0.000000 4.122010 0.143814 7.029900 # 1 UNK
441 1 1 0.000000 10.580800 1.649310 -8.160890 # 1 UNK
442 1 1 0.000000 -8.618420 4.388150 9.580420 # 1 UNK
443 1 1 0.000000 -10.795200 6.791730 -9.443950 # 1 UNK
444 1 1 0.000000 5.590270 8.354500 0.337729 # 1 UNK
445 1 1 0.000000 -8.235950 0.099801 10.115000 # 1 UNK
446 1 1 0.000000 -5.740770 7.942330 -9.784380 # 1 UNK
447 1 1 0.000000 10.499100 -1.957790 3.732770 # 1 UNK
448 1 1 0.000000 5.906890 -10.576000 -6.298490 # 1 UNK
449 1 1 0.000000 -0.493249 -2.036280 -1.619280 # 1 UNK
450 1 1 0.000000 5.670220 -1.287840 1.067450 # 1 UNK
451 1 1 0.000000 2.677110 -4.188160 6.482140 # 1 UNK
452 1 1 0.000000 3.396230 5.153220 0.532117 # 1 UNK
453 1 1 0.000000 -3.825430 -7.584040 11.078100 # 1 UNK
454 1 1 0.000000 -1.835370 -0.340714 5.463960 # 1 UNK
455 1 1 0.000000 -5.245560 -0.275174 -5.789790 # 1 UNK
456 1 1 0.000000 6.279610 -3.406990 1.269570 # 1 UNK
457 1 1 0.000000 1.405370 -10.402000 -10.611300 # 1 UNK
458 1 1 0.000000 3.617840 4.250700 3.104340 # 1 UNK
459 1 1 0.000000 -2.333290 10.844300 0.170648 # 1 UNK
460 1 1 0.000000 -1.536700 0.706311 -1.221790 # 1 UNK
461 1 1 0.000000 -2.714140 1.665980 -7.662870 # 1 UNK
462 1 1 0.000000 2.809270 -2.800820 -4.603610 # 1 UNK
463 1 1 0.000000 -9.342110 2.674870 5.661240 # 1 UNK
464 1 1 0.000000 -1.042280 -4.932690 10.446400 # 1 UNK
465 1 1 0.000000 5.221860 5.448500 -3.831460 # 1 UNK
466 1 1 0.000000 -3.555340 -7.248760 -10.388400 # 1 UNK
467 1 1 0.000000 -10.669400 10.049500 -8.188520 # 1 UNK
468 1 1 0.000000 6.411550 -7.590660 -4.599780 # 1 UNK
469 1 1 0.000000 -1.244620 -6.956280 -6.024490 # 1 UNK
470 1 1 0.000000 0.079613 4.026730 7.499950 # 1 UNK
471 1 1 0.000000 -0.441460 3.660440 -5.179540 # 1 UNK
472 1 1 0.000000 7.286920 7.386650 7.644220 # 1 UNK
473 1 1 0.000000 2.579300 4.385200 -4.955050 # 1 UNK
474 1 1 0.000000 -10.332600 -3.002530 9.585420 # 1 UNK
475 1 1 0.000000 10.540400 -1.721920 -6.444370 # 1 UNK
476 1 1 0.000000 -5.791040 8.598720 -6.874020 # 1 UNK
477 1 1 0.000000 -4.210390 -3.395380 -1.194850 # 1 UNK
478 1 1 0.000000 -9.756980 4.648240 -9.771900 # 1 UNK
479 1 1 0.000000 9.223520 -7.029590 -10.203700 # 1 UNK
480 1 1 0.000000 9.890810 -3.741660 4.432990 # 1 UNK
481 1 1 0.000000 6.425930 -4.494340 3.782530 # 1 UNK
482 1 1 0.000000 -10.848400 -10.378900 4.362330 # 1 UNK
483 1 1 0.000000 6.473620 -9.029070 10.177000 # 1 UNK
484 1 1 0.000000 2.350390 10.281400 10.474800 # 1 UNK
485 1 1 0.000000 3.088250 -3.968370 3.823960 # 1 UNK
486 1 1 0.000000 -4.902180 1.116060 2.870940 # 1 UNK
487 1 1 0.000000 2.888350 -6.126220 6.677800 # 1 UNK
488 1 1 0.000000 -9.207830 0.315774 9.595330 # 1 UNK
489 1 1 0.000000 0.479221 3.491930 -8.951420 # 1 UNK
490 1 1 0.000000 -3.742750 10.009700 -4.694040 # 1 UNK
491 1 1 0.000000 -10.114900 -0.141650 -10.410000 # 1 UNK
492 1 1 0.000000 -9.656400 4.085560 -7.376160 # 1 UNK
493 1 1 0.000000 -8.518410 5.714800 2.582390 # 1 UNK
494 1 1 0.000000 9.785530 -3.400680 -0.485023 # 1 UNK
495 1 1 0.000000 9.350620 4.959070 1.960410 # 1 UNK
496 1 1 0.000000 -4.959370 8.268720 4.466750 # 1 UNK
497 1 1 0.000000 0.335031 4.812410 -4.631540 # 1 UNK
498 1 1 0.000000 3.608670 -5.379880 -0.125207 # 1 UNK
499 1 1 0.000000 10.317700 -6.990890 6.729090 # 1 UNK
500 1 1 0.000000 -1.701020 -0.160560 -1.541400 # 1 UNK
501 1 1 0.000000 -3.739310 11.177500 4.527550 # 1 UNK
502 1 1 0.000000 -8.798740 9.555570 6.373700 # 1 UNK
503 1 1 0.000000 -2.966240 -7.768470 -3.889690 # 1 UNK
504 1 1 0.000000 2.768610 -3.451970 7.073920 # 1 UNK
505 1 1 0.000000 2.953550 -3.251620 -0.702826 # 1 UNK
506 1 1 0.000000 -2.703700 0.773323 9.214970 # 1 UNK
507 1 1 0.000000 9.206850 -5.931080 -3.278700 # 1 UNK
508 1 1 0.000000 -7.517920 2.512350 9.438340 # 1 UNK
509 1 1 0.000000 3.927980 7.380560 1.029250 # 1 UNK
510 1 1 0.000000 -9.592080 9.475490 6.537490 # 1 UNK
511 1 1 0.000000 4.331200 10.757000 0.215872 # 1 UNK
512 1 1 0.000000 10.619200 -3.764040 -1.471460 # 1 UNK
513 1 1 0.000000 -10.657100 3.260960 -9.154260 # 1 UNK
514 1 1 0.000000 2.030740 -8.226960 8.503140 # 1 UNK
515 1 1 0.000000 -10.172300 8.369410 7.344000 # 1 UNK
516 1 1 0.000000 -5.269850 4.010320 0.083690 # 1 UNK
517 1 1 0.000000 10.910500 -1.783440 11.156800 # 1 UNK
518 1 1 0.000000 10.862600 -4.450510 10.271500 # 1 UNK
519 1 1 0.000000 -6.659060 -8.239620 1.085370 # 1 UNK
520 1 1 0.000000 5.951730 5.105500 -5.298900 # 1 UNK
521 1 1 0.000000 2.481170 -7.767100 -9.237950 # 1 UNK
522 1 1 0.000000 -8.622700 3.871080 -0.736162 # 1 UNK
523 1 1 0.000000 -1.447010 5.953010 -1.710410 # 1 UNK
524 1 1 0.000000 10.532800 -4.750780 0.039081 # 1 UNK
525 1 1 0.000000 -1.735200 -2.095100 -0.607660 # 1 UNK
526 1 1 0.000000 -6.498830 -4.980090 6.609430 # 1 UNK
527 1 1 0.000000 6.274760 -8.989490 9.294900 # 1 UNK
528 1 1 0.000000 -4.434890 9.728900 7.338630 # 1 UNK
529 1 1 0.000000 1.070250 -9.719430 -1.252990 # 1 UNK
530 1 1 0.000000 -6.692100 6.809050 -7.720040 # 1 UNK
531 1 1 0.000000 -10.021300 8.925100 -1.810440 # 1 UNK
532 1 1 0.000000 -5.302010 2.187680 4.999320 # 1 UNK
533 1 1 0.000000 1.237980 5.663010 -6.055960 # 1 UNK
534 1 1 0.000000 4.630700 3.895490 1.221570 # 1 UNK
535 1 1 0.000000 4.579000 0.386524 -10.808700 # 1 UNK
536 1 1 0.000000 3.150200 -5.357510 -8.336100 # 1 UNK
537 1 1 0.000000 8.632510 0.602391 1.814490 # 1 UNK
538 1 1 0.000000 -8.522230 2.581780 -10.656500 # 1 UNK
539 1 1 0.000000 8.969300 -4.809490 -1.520170 # 1 UNK
540 1 1 0.000000 -6.707920 2.761350 3.685760 # 1 UNK
541 1 1 0.000000 2.753200 5.092270 4.121940 # 1 UNK
542 1 1 0.000000 -9.169440 -7.511560 8.054820 # 1 UNK
543 1 1 0.000000 -5.915030 -3.613070 4.713150 # 1 UNK
544 1 1 0.000000 4.679140 -1.211830 4.132090 # 1 UNK
545 1 1 0.000000 5.509860 -7.605030 -0.519636 # 1 UNK
546 1 1 0.000000 -2.463620 10.670700 -6.017960 # 1 UNK
547 1 1 0.000000 6.724480 -8.451970 0.177929 # 1 UNK
548 1 1 0.000000 -7.607650 7.218830 0.175280 # 1 UNK
549 1 1 0.000000 2.988390 -9.754460 0.875908 # 1 UNK
550 1 1 0.000000 -8.214410 9.602850 4.602060 # 1 UNK
551 1 1 0.000000 -5.451290 7.401270 -0.225153 # 1 UNK
552 1 1 0.000000 4.987290 -2.502510 4.814470 # 1 UNK
553 1 1 0.000000 1.002510 -4.671620 -10.494200 # 1 UNK