ITEM: TIMESTEP
0
ITEM: NUMBER OF ATOMS
6912
ITEM: BOX BOUNDS pp pp pp
-11.0229 11.0612
-11.0858 10.9983
-11.1625 10.9216
ITEM: ATOMS id type xu yu zu
 1 1 -1.82898 5.55595 0.442592
 2 1 1.04585 -2.52458 -4.07479
 3 1 -1.20723 -7.07105 4.23633
 4 1 4.91929 -10.0708 -4.54975
 5 1 5.03683 8.11333 -7.24384
 6 1 -2.83993 1.30349 -1.41797
 7 1 -1.84436 -5.17813 3.97936
 8 1 -4.27328 0.0257876 10.4865
 9 1 4.50344 -10.6556 -5.06813
 10 1 -9.45827 8.14914 -9.21887
 11 1 5.33189 -4.65027 -1.55951
 12 1 3.42654 -2.75592 7.08537
 13 1 2.50182 -1.46652 0.0636752
 14 1 6.44623 5.67903 11.0614
 15 1 3.40445 2.71144 2.87461
 16 1 0.621542 -0.972312 5.14484
 17 1 9.91529 5.78275 6.007
 18 1 -0.968109 10.2682 3.33757
 19 1 2.19795 -6.24566 9.46577
 20 1 9.94371 -6.69244 0.141465
 21 1 -7.63252 -6.26756 -1.31741
 22 1 9.07607 10.7642 0.0378658
 23 1 8.78097 6.49975 7.01491
 24 1 9.23589 -5.1336 -8.93018
 25 1 7.04061 -5.82587 1.22277
 26 1 3.82057 -4.23493 -4.14783
 27 1 -7.4091 -5.33542 7.3227
 28 1 -5.5923 8.5581 2.87977
 29 1 8.69501 8.76091 3.45819
 30 1 -5.86035 -10.1283 8.09732
 31 1 1.93303 8.51144 -8.65713
 32 1 -5.86449 -5.4986 -6.40637
 33 1 -2.08121 7.11388 1.59374
 34 1 7.19757 -8.51197 9.4819
 35 1 -5.20119 1.52614 -4.28791
 36 1 3.81494 3.34347 8.88076
 37 1 -5.75635 -1.21914 2.14975
 38 1 -0.0442808 10.667 10.3552
 39 1 -5.07492 -6.54224 9.94747
 40 1 -9.03284 2.67732 -6.04047
 41 1 4.09399 -8.84621 -9.59924
 42 1 -0.375061 2.38145 3.89327
 43 1 2.85479 9.52834 -0.825806
 44 1 -7.62384 -7.99907 2.89559
 45 1 -1.58532 -9.76379 -6.98697
 46 1 -9.41657 6.42637 -2.68263
 47 1 -4.38272 4.88602 4.3595
 48 1 -8.71216 0.863082 -9.74881
 49 1 -6.96042 4.46755 -3.14763
 50 1 -5.61614 9.4716 -1.27036
 51 1 9.45151 3.06035 9.96926
 52 1 6.60643 -1.43562 2.81672
 53 1 -10.6124 8.95708 10.2788
 54 1 -8.5233 1.72719 -3.66487
 55 1 3.70525 2.16955 -0.779066
 56 1 -1.1417 1.90329 8.86098
 57 1 9.02153 2.20942 8.5125
 58 1 6.00707 -7.48882 3.99986
 59 1 -5.50349 -7.35175 9.92408
 60 1 -4.85687 -10.6287 0.285675
 61 1 -3.56625 4.62589 -5.06695
 62 1 -4.49843 10.6359 3.38333
 63 1 -2.25712 -2.75622 -5.96942
 64 1 -7.53114 -3.03414 10.3281
 65 1 -6.02394 5.13226 -7.47167
 66 1 3.12492 4.46868 8.55558
 67 1 6.83656 1.67593 -9.06348
 68 1 -9.64271 7.705 -7.9346
 69 1 -6.68591 -7.33828 -1.81422
 70 1 1.35812 4.2147 3.3878
 71 1 -3.83523 -1.48239 -8.99307
 72 1 5.33664 -2.22002 5.61588
 73 1 0.04142 -8.33947 8.88092
 74 1 9.52574 2.16282 -10.9341
 75 1 -7.04966 -9.82258 -4.29131
 76 1 -1.98117 5.6344 -4.00802
 77 1 -8.74924 8.73828 8.95618
 78 1 -2.81999 1.93299 5.39542
 79 1 4.7295 -3.85878 3.72615
 80 1 -5.76055 10.4373 -6.9595
 81 1 2.94087 0.730123 7.86051
 82 1 6.39067 -6.8692 -3.14962
 83 1 -5.90794 9.57455 9.83083
 84 1 -1.78088 -1.06954 6.69762
 85 1 10.6312 -1.01033 11.1351
 86 1 -3.39467 3.52998 3.44485
 87 1 -10.7504 -7.7245 -5.20191
 88 1 6.57188 -4.25907 -1.28005
 89 1 9.1686 0.123995 -1.82274
 90 1 -10.3483 3.64511 6.97375
 91 1 -3.52774 -9.54399 2.94508
 92 1 3.99579 6.42755 5.63593
 93 1 8.32212 10.4134 -3.58879
 94 1 -10.371 7.60115 -5.65388
 95 1 2.18437 -7.37806 -5.17699
 96 1 -5.85167 0.0820262 -7.48639
 97 1 -10.1977 -3.31969 -0.0886947
 98 1 -1.28125 10.1018 -9.84875
 99 1 -2.72183 -5.52678 -9.36395
 100 1 -4.13805 -1.87537 7.5748
 101 1 10.7357 -8.68913 -0.953475
 102 1 6.67134 -5.54397 -0.769992
 103 1 -3.57324 6.02313 5.1949
 104 1 -6.55849 -0.361173 0.105413
 105 1 1.15628 -3.68453 -8.72287
 106 1 9.42481 -1.84551 -6.92097
 107 1 -2.25538 -3.35394 8.06834
 108 1 5.63147 10.1693 -4.66566
 109 1 -5.03618 -4.66657 -2.51803
 110 1 4.70782 3.94244 10.5401
 111 1 8.5387 4.7533 -3.70858
 112 1 1.44107 1.74651 -9.6652
 113 1 -7.88337 -5.17665 -9.01146
 114 1 3.52617 9.65661 4.65475
 115 1 5.80058 3.18126 -10.545
 116 1 7.10008 -4.02107 -6.69261
 117 1 -10.0405 -0.996 9.91742
 118 1 5.79944 0.270675 7.20843
 119 1 -3.59349 7.90635 8.3325
 120 1 -9.24226 -5.53445 10.913
 121 1 7.24036 10.1787 -5.54535
 122 1 0.311884 -10.7985 8.3606
 123 1 2.89252 -9.62646 -5.25314
 124 1 -9.01403 -0.87343 1.75458
 125 1 -3.92662 2.56515 0.911989
 126 1 5.40591 -7.75966 6.17262
 127 1 -6.89176 9.27491 -8.2226
 128 1 2.83685 -3.54696 -9.21972
 129 1 10.6475 10.4507 -0.308545
 130 1 -9.68586 1.00876 -1.52537
 131 1 -5.51654 -9.20597 -3.91022
 132 1 10.1112 -4.9608 -8.50401
 133 1 -7.1955 -2.8455 0.114108
 134 1 -4.35277 -9.07093 -7.27213
 135 1 -3.21004 4.25557 1.69067
 136 1 10.036 7.83588 -1.26792
 137 1 0.972081 -0.391586 6.90197
 138 1 -3.58196 -8.41836 -10.6572
 139 1 9.52483 3.34711 -7.16131
 140 1 -8.01361 10.7637 -0.584805
 141 1 8.66261 1.67113 -8.54741
 142 1 -7.08164 -1.51607 -6.96499
 143 1 -5.15487 8.55956 -3.151
 144 1 0.00941549 -4.51981 -5.3662
 145 1 3.5673 8.41483 -2.52967
 146 1 5.87722 7.06291 3.19056
 147 1 10.5139 -4.96564 3.19459
 148 1 -5.58661 -6.69587 5.12917
 149 1 -0.0259515 -10.9606 -2.28578
 150 1 1.51849 0.60212 -10.6865
 151 1 -3.38625 4.63865 -0.12263
 152 1 4.06074 -7.14194 0.554603
 153 1 -8.11227 -0.523837 8.07806
 154 1 2.1974 -2.54371 1.88714
 155 1 -1.80376 -2.86273 10.6395
 156 1 -1.58276 -11.0133 1.46668
 157 1 4.81891 9.57022 -8.53607
 158 1 -3.25374 9.48774 -8.47816
 159 1 0.393954 10.4229 -0.33097
 160 1 -1.70066 7.25776 -5.80392
 161 1 6.7137 5.31953 3.16449
 162 1 5.19758 8.77073 7.82635
 163 1 0.52212 8.26 -6.24673
 164 1 3.23161 -4.08792 -10.8013
 165 1 -3.54271 5.40769 7.14209
 166 1 5.51774 -0.759502 -1.80753
 167 1 -8.73181 -7.10787 -7.66161
 168 1 -2.8364 0.800301 -4.85415
 169 1 -7.3694 -2.34143 -7.10046
 170 1 -1.48499 5.60023 -4.61846
 171 1 2.66393 0.836259 -3.71461
 172 1 3.55727 -3.21196 1.13999
 173 1 5.81777 2.96488 4.18998
 174 1 -7.4453 5.95549 9.35809
 175 1 1.18123 -8.85936 -0.779334
 176 1 -9.89973 -10.3695 1.76827
 177 1 -9.99393 -5.37865 4.97585
 178 1 8.61217 -0.912728 3.40243
 179 1 2.83342 8.37565 -10.4383
 180 1 -5.46303 8.79159 -3.97557
 181 1 10.3387 -4.30298 -9.07145
 182 1 1.73809 -6.6241 1.88576
 183 1 7.0213 7.60314 -4.52894
 184 1 9.04101 7.17255 -7.30768
 185 1 0.491435 1.79744 7.06122
 186 1 6.49449 -9.46756 -8.28529
 187 1 -2.01342 0.610161 -8.97517
 188 1 7.91867 0.67218 -2.09665
 189 1 -1.87046 -2.0086 -6.36891
 190 1 1.25361 -8.15905 8.26222
 191 1 3.82157 -0.481335 -1.91622
 192 1 -7.89092 -6.91004 -7.01551
 193 1 10.6765 6.43075 3.04082
 194 1 4.84141 -2.41724 -7.2331
 195 1 7.54365 -6.98187 4.417
 196 1 8.54328 4.73454 -9.86619
 197 1 1.20726 9.69017 9.72554
 198 1 11.0528 -4.44702 -4.76694
 199 1 4.26963 3.75666 -4.66465
 200 1 3.23013 3.14245 -10.0502
 201 1 -6.50634 9.26121 6.84418
 202 1 8.67682 8.74298 4.46507
 203 1 2.93255 9.64961 -10.3611
 204 1 -10.8618 8.97312 -2.48927
 205 1 -4.29466 -5.90303 2.51842
 206 1 -1.04815 -4.99055 7.48538
 207 1 6.38697 4.49983 -9.90891
 208 1 10.0577 -9.06622 3.07034
 209 1 -4.0723 -5.43606 -9.70067
 210 1 2.76273 5.94312 -10.4879
 211 1 7.36685 5.87027 -2.33709
 212 1 7.22306 -1.20194 2.39408
 213 1 7.83138 -7.52365 5.86134
 214 1 7.88623 0.392414 4.41824
 215 1 0.28018 -5.56936 9.21796
 216 1 10.6159 -5.85399 -6.16317
 217 1 -3.10876 1.48279 8.78667
 218 1 2.85024 10.0239 -8.26558
 219 1 -0.724323 11.0769 -1.604
 220 1 8.46047 5.93218 2.68533
 221 1 -4.10624 4.27615 -0.555587
 222 1 -9.83082 -3.8896 0.859258
 223 1 -4.80958 8.48272 -2.21224
 224 1 -7.44706 5.97686 7.30538
 225 1 -5.61796 1.24673 3.39735
 226 1 2.14858 8.30554 -4.92139
 227 1 -2.6233 4.47959 3.05877
 228 1 5.08162 5.28963 9.00629
 229 1 -9.85811 -7.38786 0.741647
 230 1 -3.25121 -2.67054 9.3882
 231 1 6.50993 1.07155 -8.51451
 232 1 -1.2777 -7.26576 -3.34589
 233 1 -10.3105 10.3336 10.3227
 234 1 -8.32007 -0.466253 -3.21099
 235 1 -0.956386 1.2096 -0.78045
 236 1 -0.777388 5.51815 2.50049
 237 1 6.54658 10.4785 10.8791
 238 1 -7.20367 -6.73648 3.44641
 239 1 -5.15979 7.24015 6.74059
 240 1 -7.32628 -7.72689 -8.91678
 241 1 9.35209 5.00563 0.372583
 242 1 -8.23613 8.36422 2.77204
 243 1 -5.18068 8.31604 -4.71033
 244 1 8.64239 10.707 4.07531
 245 1 -7.01068 -0.0674831 -9.66616
 246 1 4.49327 -8.68411 -4.22488
 247 1 -3.0041 -5.53322 7.65519
 248 1 5.35363 9.83942 1.61276
 249 1 5.40069 -8.55158 0.287093
 250 1 -3.39806 5.50329 -7.83933
 251 1 -9.45848 -3.77822 -9.73603
 252 1 -4.77197 -2.61726 -8.02299
 253 1 -6.14823 0.796331 -7.45758
 254 1 0.45728 7.62964 2.54156
 255 1 6.10743 -7.59376 5.89132
 256 1 4.97084 -9.35272 -4.80071
 257 1 -5.68013 3.46795 -9.21914
 258 1 0.0531031 -4.18317 1.87296
 259 1 8.27234 0.683776 -10.9124
 260 1 -5.99074 -1.99552 -5.64689
 261 1 -5.63742 -8.09468 -8.49452
 262 1 -2.9088 5.13261 -2.8946
 263 1 -2.9861 7.82405 4.89072
 264 1 -10.7327 8.24408 10.9558
 265 1 -4.47362 7.40798 4.56304
 266 1 2.84185 9.60142 8.93908
 267 1 6.51374 -6.96358 -6.06006
 268 1 -4.72922 -4.43648 6.01783
 269 1 -9.84014 0.186543 -3.88142
 270 1 9.01081 -10.5917 9.18689
 271 1 1.54915 0.401807 -1.40102
 272 1 -0.820986 6.6819 -8.36096
 273 1 10.1632 -8.14574 -5.54885
 274 1 -8.35425 0.47428 6.40798
 275 1 -1.53588 2.89521 -3.66237
 276 1 6.87793 -6.47987 -1.13595
 277 1 7.75374 -5.68613 -9.57125
 278 1 4.13883 -7.32804 -9.11967
 279 1 -9.68745 -2.37298 4.40885
 280 1 -0.729878 -5.79297 0.0996783
 281 1 -6.81701 7.16209 1.14384
 282 1 -3.82438 -0.401173 0.322571
 283 1 -10.7732 -4.68749 1.44603
 284 1 9.61548 8.85426 7.6553
 285 1 5.49299 4.65004 -3.41688
 286 1 -9.21382 -5.59693 -2.71363
 287 1 9.02404 -9.78145 -9.43744
 288 1 2.74758 10.6624 1.14663
 289 1 1.80386 8.28148 8.21831
 290 1 -7.37474 1.19391 0.141334
 291 1 -9.94808 1.88014 -10.9991
 292 1 6.83752 -4.24028 7.84119
 293 1 -10.4364 5.11258 -1.34982
 294 1 5.43575 3.36044 2.77248
 295 1 0.741989 9.73287 3.9796
 296 1 0.791226 -1.58333 -4.45342
 297 1 7.54933 1.03704 4.73802
 298 1 -2.71667 4.35404 5.25125
 299 1 6.79015 1.09623 -9.65372
 300 1 7.37842 4.265 10.3749
 301 1 -3.75622 -10.2221 2.54149
 302 1 -6.60444 -2.37997 -0.562731
 303 1 3.691 -6.56079 1.57197
 304 1 10.7136 -8.87333 2.6018
 305 1 -5.60452 -7.37116 7.90622
 306 1 4.97731 4.35948 -3.99606
 307 1 2.64321 0.138886 9.86659
 308 1 0.158106 6.9658 7.69887
 309 1 -0.985994 -8.20035 4.63768
 310 1 6.11336 0.685709 3.5184
 311 1 -1.89338 -6.69556 8.35495
 312 1 -4.12376 4.27541 1.49916
 313 1 0.285943 -2.13564 -0.848079
 314 1 -4.38678 4.50167 -7.89392
 315 1 9.19425 -0.132586 6.2032
 316 1 1.54772 4.74614 -2.2743
 317 1 5.5291 -8.92578 -2.34295
 318 1 0.467591 -9.85015 0.385391
 319 1 -8.68931 -9.46898 -0.996987
 320 1 -9.24082 5.21795 1.43139
 321 1 1.63261 3.65184 -10.0919
 322 1 7.07675 5.34481 -3.19334
 323 1 -0.18829 -3.45822 -2.28568
 324 1 8.31161 -7.43825 -5.51706
 325 1 -4.10559 -9.985 6.78224
 326 1 -10.842 10.8475 -3.84167
 327 1 -8.00494 -4.74984 7.76261
 328 1 1.10852 4.65864 0.476791
 329 1 -2.35178 8.96194 -10.2324
 330 1 7.08327 7.76204 -2.47072
 331 1 8.98964 -4.29785 -0.888514
 332 1 -7.82881 6.12019 -3.72357
 333 1 -9.60474 -3.30734 9.52725
 334 1 1.5749 3.98114 9.47691
 335 1 9.43202 -2.322 0.817934
 336 1 4.78298 -6.70916 -2.80262
 337 1 2.8131 0.587706 -5.736
 338 1 3.00568 6.44247 -7.99297
 339 1 3.74171 4.27319 -4.99352
 340 1 -6.14447 -3.22788 -6.74629
 341 1 7.34955 3.97114 -4.90175
 342 1 -9.56382 2.38848 -7.31354
 343 1 -10.1019 -6.12019 5.84983
 344 1 4.47277 -6.98602 -5.10512
 345 1 -3.41304 -7.56045 7.6903
 346 1 0.219501 -1.11461 1.17648
 347 1 -4.64589 -0.890971 9.01447
 348 1 0.291329 -4.83114 0.105707
 349 1 -5.49194 8.12144 -10.4362
 350 1 -3.64832 -9.21299 6.85182
 351 1 9.80389 2.83881 10.7762
 352 1 0.0741277 -7.00827 2.61153
 353 1 3.88265 -7.86987 -2.75456
 354 1 6.94 1.97914 4.84505
 355 1 5.97642 8.10934 -0.322667
 356 1 -7.54216 -9.13409 -10.3055
 357 1 -10.7266 6.88402 -6.74268
 358 1 7.35326 4.8557 -5.41568
 359 1 2.03769 1.56018 -3.0296
 360 1 11.0859 1.43703 5.13555
 361 1 -0.870232 4.94747 4.27181
 362 1 -1.74897 9.43304 -1.32966
 363 1 -6.67332 10.0058 8.87387
 364 1 -4.72321 8.07186 0.813521
 365 1 -9.02716 -0.707006 8.22129
 366 1 -9.89778 -0.464544 7.63699
 367 1 9.2933 4.27683 2.45134
 368 1 -4.94158 4.50943 1.32633
 369 1 9.19823 0.950076 5.82771
 370 1 1.38 5.65598 9.08071
 371 1 -7.97741 -5.45156 1.26681
 372 1 4.42611 10.9041 9.7256
 373 1 -8.75431 2.83015 4.77378
 374 1 10.8158 5.41279 2.64599
 375 1 -9.74515 -3.68328 6.99492
 376 1 8.13955 9.31962 1.20155
 377 1 -4.14598 5.88981 4.60484
 378 1 -6.07138 6.59772 7.78645
 379 1 0.379332 0.606777 7.02921
 380 1 7.8691 -7.36657 -3.30499
 381 1 -10.3645 -9.27273 0.607662
 382 1 7.51552 0.925322 -10.1578
 383 1 -2.59603 1.42063 8.07252
 384 1 -10.2517 -0.230257 7.05238
 385 1 -6.20399 -9.56596 -6.91705
 386 1 -3.50214 -7.63313 -8.545
 387 1 7.16216 9.86436 -7.34608
 388 1 -8.04333 -7.25216 0.958297
 389 1 -8.01979 -10.7448 -6.42896
 390 1 8.74671 -1.05905 -6.06322
 391 1 9.35604 -3.55651 4.95179
 392 1 -0.827865 -8.32272 -8.38494
 393 1 7.81491 6.41899 8.67859
 394 1 -9.40561 -9.74553 -4.92878
 395 1 8.86483 10.2589 -6.62792
 396 1 -10.1761 -3.70468 5.68737
 397 1 8.65164 -2.61798 -9.80287
 398 1 -0.0422178 -0.559615 -8.41572
 399 1 -2.43324 -2.71995 5.41487
 400 1 8.75044 9.15335 9.34642
 401 1 -8.29889 8.65254 8.30722
 402 1 -2.6775 0.295727 -6.79309
 403 1 -9.87027 5.55564 -2.91228
 404 1 7.5481 -3.73229 2.30436
 405 1 5.17945 -6.00296 10.4606
 406 1 -6.9326 3.98442 -0.76138
 407 1 9.14093 -7.03433 -1.74676
 408 1 -7.63899 9.57857 2.08936
 409 1 -7.51432 -3.78485 -9.50828
 410 1 2.20839 7.37834 -3.48196
 411 1 -5.39126 4.32907 2.91045
 412 1 -9.29047 -5.9428 -1.99989
 413 1 -2.65981 5.91756 9.05595
 414 1 -1.37809 -8.24455 5.4839
 415 1 -1.29127 10.2677 7.29363
 416 1 7.29477 -0.83682 5.60749
 417 1 8.18077 -2.951 -3.63897
 418 1 -4.08972 -11.033 -5.70852
 419 1 6.2542 -6.42079 7.71174
 420 1 10.9895 9.01047 -4.6656
 421 1 0.436654 -4.91234 -3.46462
 422 1 -9.99018 -2.25873 -0.879965
 423 1 3.58051 4.50329 -6.8677
 424 1 3.00462 5.32313 6.34154
 425 1 -1.59375 0.0347465 7.09099
 426 1 6.13855 8.77446 -2.2171
 427 1 9.02482 6.40328 -2.05323
 428 1 -3.95855 7.93079 2.14488
 429 1 -4.10051 -8.98674 -2.63886
 430 1 -0.216696 0.64546 -0.814301
 431 1 8.63817 -1.73103 7.84183
 432 1 4.47303 7.10539 9.40605
 433 1 -0.0418682 1.31234 6.86096
 434 1 5.17892 -10.1597 0.428396
 435 1 8.63728 -6.72224 -0.0780831
 436 1 -10.7783 -6.6872 6.02446
 437 1 -8.08627 10.5795 -8.99914
 438 1 2.37665 4.00586 5.77425
 439 1 -4.14278 -1.18134 7.00704
 440 1 4.12201 0.143814 7.0299
 441 1 10.5808 1.64931 -8.16089
 442 1 -8.61842 4.38815 9.58042
 443 1 -10.7952 6.79173 -9.44395
 444 1 5.59027 8.3545 0.337729
 445 1 -8.23595 0.099801 10.115
 446 1 -5.74077 7.94233 -9.78438
 447 1 10.4991 -1.95779 3.73277
 448 1 5.90689 -10.576 -6.29849
 449 1 -0.493249 -2.03628 -1.61928
 450 1 5.67022 -1.28784 1.06745
 451 1 2.67711 -4.18816 6.48214
 452 1 3.39623 5.15322 0.532117
 453 1 -3.82543 -7.58404 11.0781
 454 1 -1.83537 -0.340714 5.46396
 455 1 -5.24556 -0.275174 -5.78979
 456 1 6.27961 -3.40699 1.26957
 457 1 1.40537 -10.402 -10.6113
 458 1 3.61784 4.2507 3.10434
 459 1 -2.33329 10.8443 0.170648
 460 1 -1.5367 0.706311 -1.22179
 461 1 -2.71414 1.66598 -7.66287
 462 1 2.80927 -2.80082 -4.60361
 463 1 -9.34211 2.67487 5.66124
 464 1 -1.04228 -4.93269 10.4464
 465 1 5.22186 5.4485 -3.83146
 466 1 -3.55534 -7.24876 -10.3884
 467 1 -10.6694 10.0495 -8.18852
 468 1 6.41155 -7.59066 -4.59978
 469 1 -1.24462 -6.95628 -6.02449
 470 1 0.0796126 4.02673 7.49995
 471 1 -0.44146 3.66044 -5.17954
 472 1 7.28692 7.38665 7.64422
 473 1 2.5793 4.3852 -4.95505
 474 1 -10.3326 -3.00253 9.58542
 475 1 10.5404 -1.72192 -6.44437
 476 1 -5.79104 8.59872 -6.87402
 477 1 -4.21039 -3.39538 -1.19485
 478 1 -9.75698 4.64824 -9.7719
 479 1 9.22352 -7.02959 -10.2037
 480 1 9.89081 -3.74166 4.43299
 481 1 6.42593 -4.49434 3.78253
 482 1 -10.8484 -10.3789 4.36233
 483 1 6.47362 -9.02907 10.177
 484 1 2.35039 10.2814 10.4748
 485 1 3.08825 -3.96837 3.82396
 486 1 -4.90218 1.11606 2.87094
 487 1 2.88835 -6.12622 6.6778
 488 1 -9.20783 0.315774 9.59533
 489 1 0.479221 3.49193 -8.95142
 490 1 -3.74275 10.0097 -4.69404
 491 1 -10.1149 -0.14165 -10.41
 492 1 -9.6564 4.08556 -7.37616
 493 1 -8.51841 5.7148 2.58239
 494 1 9.78553 -3.40068 -0.485023
 495 1 9.35062 4.95907 1.96041
 496 1 -4.95937 8.26872 4.46675
 497 1 0.335031 4.81241 -4.63154
 498 1 3.60867 -5.37988 -0.125207
 499 1 10.3177 -6.99089 6.72909
 500 1 -1.70102 -0.16056 -1.5414
 501 1 -3.73931 11.1775 4.52755
 502 1 -8.79874 9.55557 6.3737
 503 1 -2.96624 -7.76847 -3.88969
 504 1 2.76861 -3.45197 7.07392
 505 1 2.95355 -3.25162 -0.702826
 506 1 -2.7037 0.773323 9.21497
 507 1 9.20685 -5.93108 -3.2787
 508 1 -7.51792 2.51235 9.43834
 509 1 3.92798 7.38056 1.02925
 510 1 -9.59208 9.47549 6.53749
 511 1 4.3312 10.757 0.215872
 512 1 10.6192 -3.76404 -1.47146
 513 1 -10.6571 3.26096 -9.15426
 514 1 2.03074 -8.22696 8.50314
 515 1 -10.1723 8.36941 7.344
 516 1 -5.26985 4.01032 0.0836901
 517 1 10.9105 -1.78344 11.1568
 518 1 10.8626 -4.45051 10.2715
 519 1 -6.65906 -8.23962 1.08537
 520 1 5.95173 5.1055 -5.2989
 521 1 2.48117 -7.7671 -9.23795
 522 1 -8.6227 3.87108 -0.736162
 523 1 -1.44701 5.95301 -1.71041
 524 1 10.5328 -4.75078 0.039081
 525 1 -1.7352 -2.0951 -0.60766
 526 1 -6.49883 -4.98009 6.60943
 527 1 6.27476 -8.98949 9.2949
 528 1 -4.43489 9.7289 7.33863
 529 1 1.07025 -9.71943 -1.25299
 530 1 -6.6921 6.80905 -7.72004
 531 1 -10.0213 8.9251 -1.81044
 532 1 -5.30201 2.18768 4.99932
 533 1 1.23798 5.66301 -6.05596
 534 1 4.6307 3.89549 1.22157
 535 1 4.579 0.386524 -10.8087
 536 1 3.1502 -5.35751 -8.3361
 537 1 8.63251 0.602391 1.81449
 538 1 -8.52223 2.58178 -10.6565
 539 1 8.9693 -4.80949 -1.52017
 540 1 -6.70792 2.76135 3.68576
 541 1 2.7532 5.09227 4.12194
 542 1 -9.16944 -7.51156 8.05482
 543 1 -5.91503 -3.61307 4.71315
 544 1 4.67914 -1.21183 4.13209
 545 1 5.50986 -7.60503 -0.519636
 546 1 -2.46362 10.6707 -6.01796
 547 1 6.72448 -8.45197 0.177929
 548 1 -7.60765 7.21883 0.17528
 549 1 2.98839 -9.75446 0.875908
 550 1 -8.21441 9.60285 4.60206
 551 1 -5.45129 7.40127 -0.225153
 552 1 4.98729 -2.50251 4.81447
 553 1 1.00251 -4.67162 -10.4942
 554 1 -1.54765 8.43179 7.49816
 555 1 0.702322 6.23273 -3.74935
 556 1 -9.45614 -8.35083 3.94499
 557 1 2.4896 2.36987 -6.33142
 558 1 5.31604 2.57918 -3.51674
 559 1 -0.916078 -3.25843 5.72787
 560 1 -5.09735 -0.116722 7.757
 561 1 6.18269 -0.126263 -1.8866
 562 1 -1.97449 0.185537 -4.73186
 563 1 -8.6714 0.959988 7.0678
 564 1 -2.35855 -3.39697 -0.0506135
 565 1 7.87335 -1.52671 5.32343
 566 1 -2.40208 -6.44214 5.47892
 567 1 4.1857 1.7378 4.47783
 568 1 8.30887 9.13291 -9.03106
 569 1 0.519383 2.14426 -9.6917
 570 1 1.06105 5.85385 6.77766
 571 1 -7.90872 -2.94618 -4.41153
 572 1 -6.80778 -4.89383 5.00592
 573 1 -9.04734 -1.15613 -7.07233
 574 1 -5.77553 8.12729 -0.331907
 575 1 -0.360945 -5.9141 -1.62581
 576 1 5.89987 -1.54167 6.09584
 577 1 4.71065 -3.55062 2.73007
 578 1 -0.313008 -7.87534 -7.70682
 579 1 -7.03512 5.59447 -9.0908
 580 1 -5.32925 -0.930275 -9.01221
 581 1 4.33507 6.24731 -6.02967
 582 1 -7.50584 -7.11581 2.87378
 583 1 8.3933 -5.53083 9.41349
 584 1 -8.65615 4.22624 4.97346
 585 1 -8.95997 4.37329 1.37215
 586 1 -1.44974 10.4451 -0.0290202
 587 1 3.29939 5.84214 9.94126
 588 1 -8.41784 -1.31796 -10.9147
 589 1 3.95944 -2.22956 3.60319
 590 1 -4.92219 10.296 8.89167
 591 1 1.67 -8.55534 -10.7617
 592 1 5.86797 -9.22864 -1.46983
 593 1 9.79471 -10.0572 -2.11645
 594 1 1.56358 7.20171 -9.73566
 595 1 7.79331 3.98153 0.567041
 596 1 -5.65515 -8.64888 5.12578
 597 1 11.0658 -8.03001 3.00338
 598 1 -8.12358 -8.59677 -10.7437
 599 1 7.66094 -8.61938 3.19167
 600 1 2.75857 -6.23132 8.68883
 601 1 1.33037 5.81572 10.0608
 602 1 -5.57393 -3.49821 10.0191
 603 1 -4.06692 0.764193 6.28415
 604 1 10.389 4.9811 -8.42575
 605 1 -6.27472 -6.07024 8.26966
 606 1 10.1738 -10.3765 -5.93915
 607 1 3.86395 5.17991 0.00897101
 608 1 -2.69756 2.33916 10.4153
 609 1 0.233651 -0.960725 -6.31164
 610 1 5.35724 1.07413 3.27455
 611 1 6.82768 5.65471 -10.1406
 612 1 -11.1201 -2.85148 2.11509
 613 1 -8.55873 -5.83469 -6.57393
 614 1 -8.02466 -1.66769 0.484232
 615 1 -2.48576 -5.06637 -10.961
 616 1 5.23428 6.63004 8.71642
 617 1 -9.8348 -0.48456 -2.08389
 618 1 -6.14314 -7.61203 -8.98625
 619 1 -9.90088 -4.36834 2.85839
 620 1 -4.94339 7.10787 -6.73372
 621 1 1.46761 -11.0464 -6.92692
 622 1 8.96706 -5.20774 -8.13039
 623 1 -8.09597 10.576 4.02847
 624 1 3.15713 9.20317 4.02903
 625 1 8.49492 -5.4776 -7.15214
 626 1 -4.73545 2.29832 -10.8676
 627 1 -5.4674 2.01898 -0.192547
 628 1 8.4781 7.18273 -5.6144
 629 1 5.9954 -0.596929 1.17429
 630 1 6.01138 8.05217 8.39523
 631 1 3.10202 -7.59838 -8.72206
 632 1 6.73567 -8.37844 7.5657
 633 1 8.32523 -9.14919 2.50204
 634 1 -9.42238 -10.6291 -7.46395
 635 1 -0.622461 -3.3704 10.3668
 636 1 -2.36521 9.67954 -10.9428
 637 1 1.07113 -3.76464 -10.1878
 638 1 9.5435 0.342233 1.94406
 639 1 0.811241 9.53916 -1.70669
 640 1 -0.657688 5.56715 7.9412
 641 1 -11.2606 -10.6675 10.8754
 642 1 2.19686 -8.54336 6.48204
 643 1 -1.73344 -4.36053 -5.18606
 644 1 -6.40478 -1.10312 4.10922
 645 1 9.38539 -3.03382 -5.33235
 646 1 -5.25289 6.94036 7.6819
 647 1 3.49795 7.29877 7.61333
 648 1 -10.2749 6.05217 -6.92943
 649 1 9.16593 -2.66477 -7.11539
 650 1 -10.7185 7.03677 6.19389
 651 1 -9.95956 6.79021 -10.0725
 652 1 -7.50587 7.40077 9.65857
 653 1 6.22723 -3.76359 5.9139
 654 1 9.57142 -5.78924 -4.38795
 655 1 -5.50335 11.006 8.86375
 656 1 -1.87032 5.45914 -6.58365
 657 1 0.41215 5.91752 -9.63463
 658 1 4.42364 -8.65964 -6.21281
 659 1 1.96899 6.2292 8.70326
 660 1 -3.9706 5.98657 10.3545
 661 1 -7.09084 -3.17558 1.11685
 662 1 9.28245 0.498883 -9.09255
 663 1 -7.33483 7.36677 5.96206
 664 1 0.861448 -1.90239 10.7416
 665 1 1.79403 -6.88913 -1.5548
 666 1 -10.0599 -0.088025 -2.8413
 667 1 9.89924 10.0447 -10.8671
 668 1 1.43319 0.697769 -8.26534
 669 1 -1.81761 2.9757 -0.0973184
 670 1 -3.94806 3.68276 4.09983
 671 1 -10.4054 -9.29237 6.1326
 672 1 -4.20193 -6.51298 7.8111
 673 1 -9.14454 -6.16113 9.83067
 674 1 -3.18979 -1.51343 1.0587
 675 1 2.16294 5.32233 2.10264
 676 1 4.80948 -0.0649573 5.7491
 677 1 6.9359 7.44089 -3.27413
 678 1 -10.9011 -7.54048 -7.00239
 679 1 -7.82655 -3.78636 7.5646
 680 1 4.1734 -4.29142 7.86839
 681 1 -4.78058 -3.9333 -10.7293
 682 1 7.21596 5.05941 10.4541
 683 1 8.65981 4.42649 6.57409
 684 1 0.7019 0.309741 3.53615
 685 1 10.5625 -6.00467 0.312105
 686 1 -0.213137 2.10524 1.03967
 687 1 3.67484 -10.1397 -3.23946
 688 1 9.92845 -0.514351 1.68771
 689 1 -10.7011 -10.1504 7.70843
 690 1 4.95916 7.70387 10.6476
 691 1 -6.41682 -9.87862 -0.728759
 692 1 -0.849374 -0.955142 -8.05802
 693 1 -4.11416 -3.13674 2.12461
 694 1 -4.42952 -1.63707 -4.44082
 695 1 7.03988 -8.70271 -3.81719
 696 1 -6.28094 -4.09782 -4.81427
 697 1 -0.367148 -7.24454 -3.34303
 698 1 -8.61769 4.60036 -4.12251
 699 1 6.42838 -7.30226 -7.6239
 700 1 -4.13505 2.70982 7.47509
 701 1 -3.05189 3.38178 -9.8852
 702 1 -10.1035 1.10841 8.52686
 703 1 -8.50474 9.77198 -10.5109
 704 1 8.60703 -6.37535 -6.73272
 705 1 -10.7365 -9.29282 7.7561
 706 1 -5.24189 4.03892 8.13206
 707 1 8.3948 0.170044 -3.96254
 708 1 -4.00095 0.836937 -9.96571
 709 1 2.15726 4.48406 4.64566
 710 1 -6.29357 1.25984 -9.50811
 711 1 -10.73 6.84513 -0.0693016
 712 1 -1.35012 1.51894 4.9079
 713 1 10.4859 -5.86802 -7.08607
 714 1 7.94858 5.44327 5.71502
 715 1 -10.0184 10.7468 -4.1035
 716 1 -6.97538 2.00254 0.783452
 717 1 -4.20493 11.2079 3.07436
 718 1 9.60289 11.0257 -1.05176
 719 1 -1.25167 7.80001 -6.45513
 720 1 -9.45425 7.71102 7.23781
 721 1 -3.50361 1.71066 -9.67326
 722 1 -7.74199 -6.95983 5.43227
 723 1 10.789 0.0564864 -4.83656
 724 1 10.6687 -8.86171 -10.0037
 725 1 -0.759163 4.01332 0.0754696
 726 1 10.2587 -7.85335 1.13479
 727 1 -4.54817 1.14052 -8.79692
 728 1 6.78176 -10.6105 -5.91825
 729 1 -3.54708 -0.405677 2.41775
 730 1 7.48557 -0.0552788 -4.20618
 731 1 9.70139 -5.94017 -5.77714
 732 1 0.271373 -8.82696 -3.62756
 733 1 7.883 -6.37515 10.8424
 734 1 -3.04999 -0.852201 10.2225
 735 1 5.71757 1.41659 -3.84216
 736 1 -1.24266 10.628 -7.57175
 737 1 4.70698 1.47907 -6.78257
 738 1 5.72573 -10.9616 7.44518
 739 1 0.347463 -10.4153 -5.13795
 740 1 -4.55251 -4.72304 2.78405
 741 1 -0.753045 0.200049 8.83524
 742 1 2.80861 -10.5858 6.44951
 743 1 2.13933 9.94714 -4.17288
 744 1 5.47407 2.92123 -8.23047
 745 1 -3.68621 4.28911 -5.99489
 746 1 8.86724 -7.0061 -5.86155
 747 1 3.39245 -5.67131 -6.55526
 748 1 2.77867 -10.4609 -0.673264
 749 1 -6.94868 1.81036 -6.00374
 750 1 -4.0984 7.32093 3.16763
 751 1 2.29042 -5.69311 10.2966
 752 1 6.19695 9.9028 5.86769
 753 1 10.0244 6.0102 -0.698007
 754 1 -6.31568 -5.31757 2.36762
 755 1 10.023 -8.87012 -5.0798
 756 1 -1.64399 -10.2166 -10.7259
 757 1 -3.67741 -10.1309 4.82192
 758 1 -2.3074 -0.708788 4.80638
 759 1 -1.01923 -0.498894 6.59811
 760 1 -8.69588 -10.3344 -5.98247
 761 1 -2.5487 2.22429 -6.06381
 762 1 -5.11423 -10.0742 -3.99535
 763 1 6.79917 2.5064 -9.19206
 764 1 -6.54827 -4.02465 8.59088
 765 1 8.12503 -1.77529 -8.05376
 766 1 10.4939 0.53558 7.5483
 767 1 10.2355 9.80132 1.50782
 768 1 3.10276 4.98013 -1.48039
 769 1 4.73745 6.5244 6.99661
 770 1 4.64418 -10.4805 -7.9959
 771 1 -7.79114 1.65014 -1.42608
 772 1 4.19028 -2.42672 -2.99749
 773 1 10.3854 3.71718 -5.42863
 774 1 2.90098 -8.58143 -0.622546
 775 1 2.50418 1.72822 -9.26145
 776 1 2.61628 10.9587 0.010872
 777 1 1.14558 -7.33541 -2.36082
 778 1 -3.60268 3.24683 -7.80238
 779 1 7.6886 -3.72946 -7.56988
 780 1 9.86282 -3.70304 -3.38444
 781 1 6.24449 3.90234 1.49282
 782 1 -6.81888 8.98221 -4.11256
 783 1 6.26662 -1.49247 7.73008
 784 1 -0.657932 8.43449 3.96047
 785 1 -4.66272 -8.21214 4.10894
 786 1 2.96726 -9.88061 -7.42509
 787 1 7.26195 10.7373 -7.51504
 788 1 4.12837 -9.82784 -7.90834
 789 1 9.56945 5.93574 -5.82633
 790 1 -1.55273 -7.71708 -8.75565
 791 1 -4.3974 4.65946 8.77347
 792 1 6.8635 8.53868 -2.38358
 793 1 3.12694 2.63534 -5.83131
 794 1 5.55591 1.97223 10.1951
 795 1 9.72069 -2.53688 10.3174
 796 1 -8.87107 3.06772 7.65018
 797 1 8.34052 5.54593 -0.20452
 798 1 11.0417 4.95292 5.36405
 799 1 -5.60232 -3.16023 -9.08353
 800 1 -0.145517 -2.36583 7.38494
 801 1 -1.81079 -6.76417 -9.42319
 802 1 8.11202 4.65738 -1.28031
 803 1 4.77956 6.10465 -1.85803
 804 1 -7.69719 8.97346 -4.62129
 805 1 7.21631 -0.448932 -5.20538
 806 1 -2.96643 -5.50391 -8.65538
 807 1 -8.59932 -4.3451 -5.57831
 808 1 3.21288 4.30472 -8.31411
 809 1 0.829612 -2.10407 6.02283
 810 1 1.50773 5.55809 0.366282
 811 1 -2.01429 4.54746 5.08968
 812 1 7.90101 -11.0831 9.29604
 813 1 -4.15053 -6.40885 0.608857
 814 1 -9.4075 6.15584 -6.32416
 815 1 2.75634 -8.92403 0.359433
 816 1 7.95615 3.06389 -1.20928
 817 1 -10.5921 3.89735 10.0296
 818 1 -9.19191 9.77947 9.98828
 819 1 5.68603e-05 5.2462 5.63154
 820 1 2.74459 -3.75062 -8.21613
 821 1 -8.39699 -10.9144 4.56776
 822 1 2.61504 8.34562 6.01981
 823 1 3.00498 -7.51683 6.36964
 824 1 6.97955 6.08835 9.04931
 825 1 9.33063 2.80245 -5.66499
 826 1 10.1699 0.495455 9.97392
 827 1 -3.46812 -8.40248 -5.97187
 828 1 -0.12418 0.0905514 -0.178668
 829 1 6.46382 -9.68886 5.94947
 830 1 10.804 -3.37328 -10.0831
 831 1 5.38563 6.72522 0.899768
 832 1 -2.99955 7.61594 -5.04731
 833 1 4.80889 -9.88416 -8.86062
 834 1 -0.245235 -0.0281215 -3.35301
 835 1 -0.0593684 -10.5138 4.55588
 836 1 1.44743 -10.0242 -3.68721
 837 1 -7.60879 2.02159 0.0774911
 838 1 -4.73535 -2.21538 -10.7045
 839 1 8.95614 -2.58067 11.0777
 840 1 3.68002 -0.821253 1.0889
 841 1 -7.75405 -7.58222 -5.8548
 842 1 2.06837 -1.78395 -1.65984
 843 1 -0.834633 8.29896 -7.08321
 844 1 -7.37409 2.14449 2.40537
 845 1 -2.49304 -4.08893 2.13336
 846 1 -8.74425 10.498 0.782115
 847 1 -9.03583 4.81432 -0.0164557
 848 1 -8.37385 -5.47916 7.88195
 849 1 6.97447 -0.424433 9.88886
 850 1 -8.08994 -7.08244 3.63334
 851 1 3.07404 -6.20644 -7.70697
 852 1 7.42437 -1.24095 -3.30923
 853 1 5.85614 -9.21847 5.32046
 854 1 8.76352 8.66274 -4.98366
 855 1 9.20606 -7.27541 3.27897
 856 1 -2.87785 10.4879 -9.41813
 857 1 0.0717841 1.36705 2.18187
 858 1 6.22724 -5.68046 0.881392
 859 1 -3.73163 -0.872439 -2.88953
 860 1 1.39024 0.56924 -6.35768
 861 1 1.08727 5.90913 -9.14581
 862 1 4.92846 -4.13908 -2.33315
 863 1 5.63071 -3.08537 -3.82032
 864 1 5.39246 -2.05311 1.2025
 865 1 -2.94449 -3.61963 -3.10565
 866 1 5.91998 -7.97256 0.232862
 867 1 -4.17618 9.91703 -2.96444
 868 1 3.49821 -2.70943 -2.52764
 869 1 0.789403 9.08231 -7.46842
 870 1 -3.03025 -6.75617 2.9625
 871 1 -0.861513 8.40033 0.251952
 872 1 10.9826 4.28852 -6.02393
 873 1 3.18771 5.37713 8.30947
 874 1 0.419702 7.70151 10.4748
 875 1 5.30526 -7.76292 8.97764
 876 1 -3.20754 2.59752 -8.60351
 877 1 -4.40662 3.50847 -6.15641
 878 1 2.20549 -8.17435 -10.5418
 879 1 8.74825 -4.9251 3.13689
 880 1 10.4331 9.9454 -3.19249
 881 1 2.99508 -8.84712 -4.70094
 882 1 5.27917 -3.90996 9.20769
 883 1 -3.28315 4.9896 -5.81313
 884 1 -7.7251 7.96835 5.71234
 885 1 2.01503 -6.42341 4.94118
 886 1 0.487764 -8.48911 8.16918
 887 1 2.28682 5.93451 -6.04163
 888 1 -8.0406 -7.28275 7.89609
 889 1 7.4929 3.45883 -8.85845
 890 1 0.1884 10.5439 8.19119
 891 1 4.32621 -7.68715 8.91082
 892 1 2.87172 8.03365 2.71008
 893 1 7.53435 -2.14298 -6.15778
 894 1 -4.16491 -1.41632 9.56173
 895 1 -11.0456 -5.71783 -9.391
 896 1 -1.01061 -8.18257 3.92781
 897 1 -5.52268 -7.49969 0.44598
 898 1 -8.15864 9.63873 3.77377
 899 1 7.03646 -6.39318 7.3756
 900 1 8.46043 1.57375 8.8069
 901 1 -9.10383 -7.42177 -9.6659
 902 1 8.28967 -9.476 -4.11682
 903 1 8.01631 -0.750525 -0.685186
 904 1 -5.17027 -7.25131 6.09818
 905 1 9.88554 2.39876 8.29677
 906 1 -6.91418 9.71006 -9.00114
 907 1 -9.64408 4.91274 4.80812
 908 1 -7.54834 10.1692 9.81766
 909 1 2.05919 2.82828 4.71023
 910 1 8.82635 -4.42929 6.7822
 911 1 -2.48706 -10.0143 -9.35447
 912 1 5.60576 2.26893 0.769105
 913 1 9.67954 4.92897 1.20373
 914 1 9.92499 8.95625 0.953978
 915 1 1.25592 1.39536 0.58056
 916 1 3.76886 -8.93354 6.81266
 917 1 -8.66564 -9.52359 8.26569
 918 1 7.49889 -7.47163 0.453346
 919 1 0.782163 9.40405 0.815053
 920 1 -7.2095 -8.33165 8.86528
 921 1 -4.06956 -6.82435 8.61627
 922 1 9.17066 6.71454 -9.40431