LAMMPS data file. CGCMM style. atom_style full generated by VMD/TopoTools v1.7 on Sun Sep 29 19:49:31 EDT 2019
 6912 atoms
 0 bonds
 0 angles
 0 dihedrals
 0 impropers
 1 atom types
 0 bond types
 0 angle types
 0 dihedral types
 0 improper types
 -11.062400 11.021600  xlo xhi
 -10.968600 11.115501  ylo yhi
 -10.990000 11.094000  zlo zhi

# Pair Coeffs
#
# 1  1

 Masses

 1 12.000000 # 1

 Atoms # full

1 1 1 0.000000 2.197540 -3.391750 3.700540 # 1 UNK
2 1 1 0.000000 6.874110 -3.849130 6.686010 # 1 UNK
3 1 1 0.000000 -2.133860 2.406740 -5.224380 # 1 UNK
4 1 1 0.000000 -10.898500 -3.460150 6.799330 # 1 UNK
5 1 1 0.000000 6.986490 3.689200 0.893835 # 1 UNK
6 1 1 0.000000 -4.314520 -10.804100 -1.683050 # 1 UNK
7 1 1 0.000000 6.784810 4.572650 0.513638 # 1 UNK
8 1 1 0.000000 5.452040 7.545860 9.837990 # 1 UNK
9 1 1 0.000000 -8.923110 1.332190 8.689620 # 1 UNK
10 1 1 0.000000 -6.790390 0.598251 -6.738430 # 1 UNK
11 1 1 0.000000 -10.593600 3.396070 -6.832780 # 1 UNK
12 1 1 0.000000 10.027900 -3.956830 -10.473500 # 1 UNK
13 1 1 0.000000 -10.352900 -0.386876 -4.581860 # 1 UNK
14 1 1 0.000000 -5.665550 -4.390120 -9.894570 # 1 UNK
15 1 1 0.000000 -7.940530 9.726430 0.878920 # 1 UNK
16 1 1 0.000000 -9.261830 10.455900 -7.601340 # 1 UNK
17 1 1 0.000000 -6.894030 -8.445040 -0.143879 # 1 UNK
18 1 1 0.000000 -6.634160 -2.342280 3.773130 # 1 UNK
19 1 1 0.000000 -7.264510 -4.446970 -4.671440 # 1 UNK
20 1 1 0.000000 -1.597330 -7.404860 -2.055950 # 1 UNK
21 1 1 0.000000 6.758510 2.245770 10.100100 # 1 UNK
22 1 1 0.000000 -9.206030 9.499780 5.421680 # 1 UNK
23 1 1 0.000000 5.854440 -7.177430 3.225470 # 1 UNK
24 1 1 0.000000 -6.726160 -7.277130 8.018330 # 1 UNK
25 1 1 0.000000 -9.539390 2.321740 -4.005000 # 1 UNK
26 1 1 0.000000 4.391020 -1.488330 -7.067030 # 1 UNK
27 1 1 0.000000 7.386850 2.116850 -8.185480 # 1 UNK
28 1 1 0.000000 -2.365710 -6.251200 -8.359400 # 1 UNK
29 1 1 0.000000 4.691880 -6.449250 -10.797800 # 1 UNK
30 1 1 0.000000 0.343302 -4.672890 -2.490800 # 1 UNK
31 1 1 0.000000 -1.900340 -8.953810 0.067507 # 1 UNK
32 1 1 0.000000 -2.275410 -6.186280 -10.749500 # 1 UNK
33 1 1 0.000000 -5.837350 -9.693880 -4.638400 # 1 UNK
34 1 1 0.000000 8.756600 -2.289330 1.879960 # 1 UNK
35 1 1 0.000000 6.107220 2.443000 -6.250080 # 1 UNK
36 1 1 0.000000 10.514800 -10.869300 9.790850 # 1 UNK
37 1 1 0.000000 -0.702183 4.528700 -1.144880 # 1 UNK
38 1 1 0.000000 1.946250 6.431620 -2.460080 # 1 UNK
39 1 1 0.000000 -9.272830 -3.321230 -6.370220 # 1 UNK
40 1 1 0.000000 3.428910 -2.353890 10.248900 # 1 UNK
41 1 1 0.000000 0.167863 7.030570 -5.980620 # 1 UNK
42 1 1 0.000000 2.724110 -9.970010 8.570010 # 1 UNK
43 1 1 0.000000 -4.138410 -9.391490 -3.887470 # 1 UNK
44 1 1 0.000000 6.660840 -9.331590 3.000700 # 1 UNK
45 1 1 0.000000 0.841831 -4.355160 2.635250 # 1 UNK
46 1 1 0.000000 6.616240 -5.823010 2.923360 # 1 UNK
47 1 1 0.000000 -10.629400 5.391860 1.529850 # 1 UNK
48 1 1 0.000000 -8.220900 -1.512400 7.680810 # 1 UNK
49 1 1 0.000000 6.709260 -10.911900 7.259830 # 1 UNK
50 1 1 0.000000 -9.009420 -9.300510 -5.794440 # 1 UNK
51 1 1 0.000000 0.758824 0.022512 5.055560 # 1 UNK
52 1 1 0.000000 -6.162350 1.942880 -0.982086 # 1 UNK
53 1 1 0.000000 -2.862290 6.734670 -10.761100 # 1 UNK
54 1 1 0.000000 4.445640 3.240090 3.086110 # 1 UNK
55 1 1 0.000000 -1.679550 -9.663170 -4.973460 # 1 UNK
56 1 1 0.000000 -7.029710 3.466650 3.004970 # 1 UNK
57 1 1 0.000000 6.390190 5.628350 4.506360 # 1 UNK
58 1 1 0.000000 -3.527180 -0.632868 -5.227030 # 1 UNK
59 1 1 0.000000 4.233880 -9.884940 -6.824480 # 1 UNK
60 1 1 0.000000 -7.206210 -8.070910 -7.798310 # 1 UNK
61 1 1 0.000000 7.577950 -5.464680 -3.963520 # 1 UNK
62 1 1 0.000000 8.784970 -0.765600 6.761240 # 1 UNK
63 1 1 0.000000 -5.580160 -3.102230 -6.006660 # 1 UNK
64 1 1 0.000000 2.013570 5.476960 3.170790 # 1 UNK
65 1 1 0.000000 11.167100 -1.629010 -8.581970 # 1 UNK
66 1 1 0.000000 10.311100 3.275730 -6.486030 # 1 UNK
67 1 1 0.000000 -5.260770 10.302900 -8.158480 # 1 UNK
68 1 1 0.000000 0.371026 -10.560700 -4.133780 # 1 UNK
69 1 1 0.000000 5.097950 2.701610 -10.903500 # 1 UNK
70 1 1 0.000000 -2.461770 -6.117260 4.176640 # 1 UNK
71 1 1 0.000000 -3.476280 -10.637000 -8.525570 # 1 UNK
72 1 1 0.000000 8.860550 1.258430 -2.794400 # 1 UNK
73 1 1 0.000000 -5.826280 -5.012150 -7.431050 # 1 UNK
74 1 1 0.000000 10.692900 1.954270 10.756500 # 1 UNK
75 1 1 0.000000 -1.308400 8.805540 8.786060 # 1 UNK
76 1 1 0.000000 -4.831100 10.174400 -3.941640 # 1 UNK
77 1 1 0.000000 -6.584820 1.245770 5.883330 # 1 UNK
78 1 1 0.000000 3.498040 -6.739060 -8.996170 # 1 UNK
79 1 1 0.000000 -3.613780 8.245640 -5.783650 # 1 UNK
80 1 1 0.000000 3.273410 7.439810 -3.404440 # 1 UNK
81 1 1 0.000000 -0.624454 -4.302240 5.172230 # 1 UNK
82 1 1 0.000000 -9.705740 9.191840 -6.549830 # 1 UNK
83 1 1 0.000000 -11.185400 9.607890 0.586745 # 1 UNK
84 1 1 0.000000 -3.735850 -9.911270 3.910130 # 1 UNK
85 1 1 0.000000 -6.310600 7.550520 -1.218440 # 1 UNK
86 1 1 0.000000 3.726710 -0.951573 8.497300 # 1 UNK
87 1 1 0.000000 4.221450 -4.681190 -4.924610 # 1 UNK
88 1 1 0.000000 -8.769900 7.226300 -10.337500 # 1 UNK
89 1 1 0.000000 7.535160 -10.637800 -1.877150 # 1 UNK
90 1 1 0.000000 2.248260 -1.992530 -7.033830 # 1 UNK
91 1 1 0.000000 6.095620 -10.612900 -2.104270 # 1 UNK
92 1 1 0.000000 -10.249700 10.821000 -0.843983 # 1 UNK
93 1 1 0.000000 9.534120 -5.122580 -7.327260 # 1 UNK
94 1 1 0.000000 -10.013300 1.759600 9.423470 # 1 UNK
95 1 1 0.000000 2.520930 -8.733280 -1.794980 # 1 UNK
96 1 1 0.000000 -6.467630 8.569010 2.895880 # 1 UNK
97 1 1 0.000000 2.714950 -7.768640 -6.965410 # 1 UNK
98 1 1 0.000000 6.358440 -10.367000 -9.780390 # 1 UNK
99 1 1 0.000000 -8.757970 6.380480 -7.023030 # 1 UNK
100 1 1 0.000000 10.018400 -0.781685 -1.833860 # 1 UNK
101 1 1 0.000000 2.018190 0.437194 -7.188500 # 1 UNK
102 1 1 0.000000 4.910360 5.932250 -3.029210 # 1 UNK
103 1 1 0.000000 -9.925640 -1.130720 4.680290 # 1 UNK
104 1 1 0.000000 8.904740 -1.259790 0.209789 # 1 UNK
105 1 1 0.000000 8.259390 -1.981990 -1.850840 # 1 UNK
106 1 1 0.000000 -6.440170 4.094310 9.591470 # 1 UNK
107 1 1 0.000000 8.153110 0.995529 -3.337230 # 1 UNK
108 1 1 0.000000 6.369100 1.087490 -1.520910 # 1 UNK
109 1 1 0.000000 9.468480 8.085480 -3.158370 # 1 UNK
110 1 1 0.000000 -2.993220 -0.133740 5.735200 # 1 UNK
111 1 1 0.000000 1.003600 -5.958960 -5.654380 # 1 UNK
112 1 1 0.000000 -9.033380 -0.183106 7.235220 # 1 UNK
113 1 1 0.000000 -2.160930 6.562250 -0.071915 # 1 UNK
114 1 1 0.000000 8.717470 7.611820 -4.665350 # 1 UNK
115 1 1 0.000000 -2.185020 7.413640 -4.693390 # 1 UNK
116 1 1 0.000000 -5.409230 -5.501280 -9.807920 # 1 UNK
117 1 1 0.000000 4.669900 -8.254290 8.044640 # 1 UNK
118 1 1 0.000000 -8.380200 10.580500 5.668590 # 1 UNK
119 1 1 0.000000 -5.177720 4.660800 -10.680300 # 1 UNK
120 1 1 0.000000 4.948650 -6.370630 3.121130 # 1 UNK
121 1 1 0.000000 8.052900 6.541280 -9.245890 # 1 UNK
122 1 1 0.000000 1.265620 0.580811 -9.500230 # 1 UNK
123 1 1 0.000000 8.510310 -8.802670 -1.411740 # 1 UNK
124 1 1 0.000000 1.424000 -0.662750 -1.402190 # 1 UNK
125 1 1 0.000000 -2.470400 -0.838895 5.998440 # 1 UNK
126 1 1 0.000000 -9.143270 -3.875440 6.093570 # 1 UNK
127 1 1 0.000000 6.741780 2.463380 -5.658990 # 1 UNK
128 1 1 0.000000 1.291410 5.467380 -10.255100 # 1 UNK
129 1 1 0.000000 1.758240 -8.519070 -7.740190 # 1 UNK
130 1 1 0.000000 7.419970 -5.818630 4.487520 # 1 UNK
131 1 1 0.000000 -1.892390 -7.390710 9.652510 # 1 UNK
132 1 1 0.000000 -6.531790 -4.542510 -2.331810 # 1 UNK
133 1 1 0.000000 7.852120 1.734230 -8.856830 # 1 UNK
134 1 1 0.000000 10.338100 6.293780 -10.815000 # 1 UNK
135 1 1 0.000000 3.248540 -0.495054 0.049829 # 1 UNK
136 1 1 0.000000 -0.952375 6.206520 6.995460 # 1 UNK
137 1 1 0.000000 4.948800 -7.948320 -8.599620 # 1 UNK
138 1 1 0.000000 0.238421 -8.645980 10.819700 # 1 UNK
139 1 1 0.000000 3.937620 -8.571150 9.615600 # 1 UNK
140 1 1 0.000000 7.311960 -4.666660 6.777400 # 1 UNK
141 1 1 0.000000 6.022620 -7.914580 5.011400 # 1 UNK
142 1 1 0.000000 -8.218660 7.763470 4.043360 # 1 UNK
143 1 1 0.000000 9.792590 -0.114708 -7.144220 # 1 UNK
144 1 1 0.000000 -8.183930 0.574008 -1.321560 # 1 UNK
145 1 1 0.000000 8.030150 -4.369660 -4.804640 # 1 UNK
146 1 1 0.000000 1.325940 2.209480 -6.455690 # 1 UNK
147 1 1 0.000000 3.840460 -9.866190 -4.472780 # 1 UNK
148 1 1 0.000000 -7.039580 -5.495990 -9.610810 # 1 UNK
149 1 1 0.000000 -0.646931 -9.494290 -7.907120 # 1 UNK
150 1 1 0.000000 7.716370 0.978805 -9.078480 # 1 UNK
151 1 1 0.000000 9.652770 -6.534850 8.847010 # 1 UNK
152 1 1 0.000000 7.147860 2.729960 -0.511327 # 1 UNK
153 1 1 0.000000 -9.018020 6.100690 7.460300 # 1 UNK
154 1 1 0.000000 7.671600 5.892010 4.472740 # 1 UNK
155 1 1 0.000000 4.072060 1.246360 -2.976040 # 1 UNK
156 1 1 0.000000 1.060110 -2.866720 -0.708724 # 1 UNK
157 1 1 0.000000 0.798566 -2.075440 -8.351330 # 1 UNK
158 1 1 0.000000 -3.466570 7.216390 9.616360 # 1 UNK
159 1 1 0.000000 1.709980 7.254340 -7.538530 # 1 UNK
160 1 1 0.000000 -4.714520 8.190940 -7.576500 # 1 UNK
161 1 1 0.000000 -5.392750 1.663470 7.886410 # 1 UNK
162 1 1 0.000000 0.687679 7.106630 4.965050 # 1 UNK
163 1 1 0.000000 -8.393440 7.521650 4.911900 # 1 UNK
164 1 1 0.000000 -0.753611 1.873760 5.562840 # 1 UNK
165 1 1 0.000000 -6.057130 -4.530800 1.664070 # 1 UNK
166 1 1 0.000000 9.413310 11.049800 -5.628780 # 1 UNK
167 1 1 0.000000 0.615925 6.376130 0.277977 # 1 UNK
168 1 1 0.000000 -7.370600 0.723806 9.557270 # 1 UNK
169 1 1 0.000000 -9.253830 -8.825500 -5.061020 # 1 UNK
170 1 1 0.000000 -4.184030 -4.817060 9.950910 # 1 UNK
171 1 1 0.000000 3.840360 -8.760800 -3.309540 # 1 UNK
172 1 1 0.000000 -2.994860 -6.379180 4.738320 # 1 UNK
173 1 1 0.000000 3.814320 -0.840579 -0.951209 # 1 UNK
174 1 1 0.000000 -0.090268 2.375080 6.568360 # 1 UNK
175 1 1 0.000000 -8.624840 4.532610 -8.839430 # 1 UNK
176 1 1 0.000000 -1.959420 3.338400 -10.017500 # 1 UNK
177 1 1 0.000000 -4.593730 -1.208920 -0.036210 # 1 UNK
178 1 1 0.000000 3.587680 9.015860 3.083630 # 1 UNK
179 1 1 0.000000 -6.488320 5.364570 -1.154000 # 1 UNK
180 1 1 0.000000 9.889560 0.687623 -6.428190 # 1 UNK
181 1 1 0.000000 -3.634870 8.631900 10.522100 # 1 UNK
182 1 1 0.000000 9.219300 -7.417490 0.457054 # 1 UNK
183 1 1 0.000000 -9.124440 1.084120 -4.375760 # 1 UNK
184 1 1 0.000000 3.312780 5.968810 -2.281600 # 1 UNK
185 1 1 0.000000 -7.461720 -0.227611 5.994070 # 1 UNK
186 1 1 0.000000 -9.807820 -2.136420 0.212752 # 1 UNK
187 1 1 0.000000 7.670470 -6.535350 1.915210 # 1 UNK
188 1 1 0.000000 -2.977860 9.440150 -7.532580 # 1 UNK
189 1 1 0.000000 10.705900 2.117800 9.210760 # 1 UNK
190 1 1 0.000000 -5.455750 5.235780 5.460830 # 1 UNK
191 1 1 0.000000 1.354470 9.958360 -6.817100 # 1 UNK
192 1 1 0.000000 5.989800 -10.076100 -8.866570 # 1 UNK
193 1 1 0.000000 3.811500 9.479450 -2.476620 # 1 UNK
194 1 1 0.000000 -5.418820 -3.675070 3.416550 # 1 UNK
195 1 1 0.000000 -9.905640 10.123300 3.500460 # 1 UNK
196 1 1 0.000000 10.069500 -2.602030 -2.797950 # 1 UNK
197 1 1 0.000000 7.864780 -1.144030 8.650110 # 1 UNK
198 1 1 0.000000 -3.758790 -10.982400 -4.769540 # 1 UNK
199 1 1 0.000000 -8.040420 8.233480 9.388140 # 1 UNK
200 1 1 0.000000 7.562780 4.502170 5.688010 # 1 UNK
201 1 1 0.000000 -4.131140 -10.099100 8.849570 # 1 UNK
202 1 1 0.000000 -6.609640 -8.044130 -3.119830 # 1 UNK
203 1 1 0.000000 -3.233670 2.732930 4.035620 # 1 UNK
204 1 1 0.000000 -3.214370 0.033294 -3.626050 # 1 UNK
205 1 1 0.000000 -8.841230 8.512060 -8.100660 # 1 UNK
206 1 1 0.000000 -10.925800 1.625130 -10.747100 # 1 UNK
207 1 1 0.000000 4.652450 5.072280 -2.978560 # 1 UNK
208 1 1 0.000000 0.433916 3.733500 10.758300 # 1 UNK
209 1 1 0.000000 6.891480 -6.704210 5.969520 # 1 UNK
210 1 1 0.000000 10.605500 8.717510 -3.683700 # 1 UNK
211 1 1 0.000000 6.174060 7.273100 -9.153660 # 1 UNK
212 1 1 0.000000 7.783790 1.774800 4.007450 # 1 UNK
213 1 1 0.000000 -8.569380 10.425300 -6.737760 # 1 UNK
214 1 1 0.000000 2.980240 4.468100 2.174430 # 1 UNK
215 1 1 0.000000 3.009580 -7.952750 -7.760820 # 1 UNK
216 1 1 0.000000 -8.634330 -3.851360 10.718900 # 1 UNK
217 1 1 0.000000 6.651590 4.258810 -5.703810 # 1 UNK
218 1 1 0.000000 2.947320 0.711041 -7.161370 # 1 UNK
219 1 1 0.000000 5.541860 -5.549250 -6.349430 # 1 UNK
220 1 1 0.000000 -3.668290 -7.380060 3.351130 # 1 UNK
221 1 1 0.000000 -10.518000 -7.307960 2.526760 # 1 UNK
222 1 1 0.000000 0.863346 -7.134380 6.620170 # 1 UNK
223 1 1 0.000000 -10.193700 2.923360 -0.719481 # 1 UNK
224 1 1 0.000000 -8.612380 9.836140 -6.207320 # 1 UNK
225 1 1 0.000000 -5.994600 5.643450 -4.133810 # 1 UNK
226 1 1 0.000000 -5.090810 -9.044660 -2.012260 # 1 UNK
227 1 1 0.000000 10.011900 -8.396210 7.572500 # 1 UNK
228 1 1 0.000000 -9.039190 2.837600 -3.090370 # 1 UNK
229 1 1 0.000000 8.657250 4.405530 1.518210 # 1 UNK
230 1 1 0.000000 4.302780 -8.229760 6.391460 # 1 UNK
231 1 1 0.000000 -7.197320 -10.216100 -0.851970 # 1 UNK
232 1 1 0.000000 -3.233950 -0.169460 -2.526910 # 1 UNK
233 1 1 0.000000 -10.129900 -1.792030 0.862386 # 1 UNK
234 1 1 0.000000 0.491908 -8.234640 -6.773340 # 1 UNK
235 1 1 0.000000 7.636280 8.501320 -9.931380 # 1 UNK
236 1 1 0.000000 -7.646040 8.711140 6.981930 # 1 UNK
237 1 1 0.000000 9.961610 -4.452850 -0.798817 # 1 UNK
238 1 1 0.000000 1.050570 0.119679 -0.235779 # 1 UNK
239 1 1 0.000000 9.832760 8.522560 4.793780 # 1 UNK
240 1 1 0.000000 3.311000 4.266400 5.127350 # 1 UNK
241 1 1 0.000000 -2.686360 -7.197060 1.156050 # 1 UNK
242 1 1 0.000000 0.070545 -6.573470 10.060800 # 1 UNK
243 1 1 0.000000 6.440970 1.803740 7.528850 # 1 UNK
244 1 1 0.000000 -8.509600 -1.629860 8.314210 # 1 UNK
245 1 1 0.000000 -10.007200 10.906600 0.939268 # 1 UNK
246 1 1 0.000000 11.011400 -1.067800 6.699990 # 1 UNK
247 1 1 0.000000 -4.767270 3.578630 -7.540340 # 1 UNK
248 1 1 0.000000 -0.698835 -4.490830 0.302094 # 1 UNK
249 1 1 0.000000 -4.376690 1.421020 -0.821035 # 1 UNK
250 1 1 0.000000 -0.537431 -4.506430 -2.437810 # 1 UNK
251 1 1 0.000000 0.677223 -2.670500 -7.861510 # 1 UNK
252 1 1 0.000000 3.902270 -10.358000 -8.799430 # 1 UNK
253 1 1 0.000000 5.139290 -2.544790 3.620770 # 1 UNK
254 1 1 0.000000 4.342040 8.409880 -6.235680 # 1 UNK
255 1 1 0.000000 0.434218 -3.144240 7.890510 # 1 UNK
256 1 1 0.000000 -2.193560 -2.205730 0.427851 # 1 UNK
257 1 1 0.000000 -4.910940 -7.827750 -0.702903 # 1 UNK
258 1 1 0.000000 5.824730 8.709310 -5.653650 # 1 UNK
259 1 1 0.000000 -5.530810 0.859922 -8.473260 # 1 UNK
260 1 1 0.000000 -4.150410 4.496790 7.342060 # 1 UNK
261 1 1 0.000000 3.798810 10.800700 6.097600 # 1 UNK
262 1 1 0.000000 8.170490 -4.845460 -4.054640 # 1 UNK
263 1 1 0.000000 7.250580 -6.217270 -5.688560 # 1 UNK
264 1 1 0.000000 4.865070 5.737030 8.241090 # 1 UNK
265 1 1 0.000000 -3.828220 -10.422100 9.500990 # 1 UNK
266 1 1 0.000000 -6.358260 -8.857570 -5.223260 # 1 UNK
267 1 1 0.000000 3.876190 5.916670 -1.513520 # 1 UNK
268 1 1 0.000000 -8.184040 -8.201380 -4.752190 # 1 UNK
269 1 1 0.000000 -4.898650 -10.726000 -5.060290 # 1 UNK
270 1 1 0.000000 -2.782240 3.420410 6.682810 # 1 UNK
271 1 1 0.000000 1.497280 -8.082980 -9.865060 # 1 UNK
272 1 1 0.000000 10.569700 -9.683510 -3.284250 # 1 UNK
273 1 1 0.000000 3.472000 1.602600 0.263347 # 1 UNK
274 1 1 0.000000 1.963150 -7.579330 7.584300 # 1 UNK
275 1 1 0.000000 -1.459590 6.855470 3.522620 # 1 UNK
276 1 1 0.000000 -7.887650 -9.817080 -7.184580 # 1 UNK
277 1 1 0.000000 -10.326900 0.167109 9.060530 # 1 UNK
278 1 1 0.000000 3.614560 -3.078030 -5.876720 # 1 UNK
279 1 1 0.000000 -6.900630 -10.398100 6.642950 # 1 UNK
280 1 1 0.000000 10.447700 -9.709510 5.627110 # 1 UNK
281 1 1 0.000000 3.891230 -11.197700 -8.231100 # 1 UNK
282 1 1 0.000000 8.315730 0.893441 5.360190 # 1 UNK
283 1 1 0.000000 -0.422817 -6.202410 3.005570 # 1 UNK
284 1 1 0.000000 7.525190 5.157090 9.467630 # 1 UNK
285 1 1 0.000000 3.711670 7.156940 2.411270 # 1 UNK
286 1 1 0.000000 -3.354950 0.232711 9.816360 # 1 UNK
287 1 1 0.000000 -5.459630 6.329680 8.767050 # 1 UNK
288 1 1 0.000000 2.972380 8.939600 -2.004390 # 1 UNK
289 1 1 0.000000 -3.898570 -5.468310 9.601970 # 1 UNK
290 1 1 0.000000 -4.141700 -5.351230 -7.873090 # 1 UNK
291 1 1 0.000000 -3.337800 7.738590 -2.843640 # 1 UNK
292 1 1 0.000000 -6.657930 -9.478160 8.802410 # 1 UNK
293 1 1 0.000000 0.649154 -1.874740 0.173721 # 1 UNK
294 1 1 0.000000 9.820660 -0.424596 -9.998800 # 1 UNK
295 1 1 0.000000 -2.760280 3.854290 -8.317570 # 1 UNK
296 1 1 0.000000 -8.408670 7.234450 -9.466270 # 1 UNK
297 1 1 0.000000 -1.312840 -4.429780 -3.968380 # 1 UNK
298 1 1 0.000000 -8.971450 -8.078020 0.273443 # 1 UNK
299 1 1 0.000000 -1.902070 0.627711 -10.001000 # 1 UNK
300 1 1 0.000000 3.393200 -8.237670 7.627730 # 1 UNK
301 1 1 0.000000 4.162510 -0.785815 -4.560730 # 1 UNK
302 1 1 0.000000 -5.555670 5.698780 -0.962846 # 1 UNK
303 1 1 0.000000 0.389531 1.847720 10.726100 # 1 UNK
304 1 1 0.000000 -4.065980 -6.240830 -4.479010 # 1 UNK
305 1 1 0.000000 10.572600 8.891830 4.461370 # 1 UNK
306 1 1 0.000000 3.262020 9.811800 0.169152 # 1 UNK
307 1 1 0.000000 -4.198370 1.068640 -7.877210 # 1 UNK
308 1 1 0.000000 -3.139500 0.156031 -1.778800 # 1 UNK
309 1 1 0.000000 8.060630 10.815400 -7.040890 # 1 UNK
310 1 1 0.000000 -9.098670 0.968582 -7.512050 # 1 UNK
311 1 1 0.000000 7.692140 11.040600 -2.532350 # 1 UNK
312 1 1 0.000000 10.598400 8.323040 -5.446210 # 1 UNK
313 1 1 0.000000 1.406070 9.247900 5.433260 # 1 UNK
314 1 1 0.000000 -9.560830 5.725040 3.195650 # 1 UNK
315 1 1 0.000000 -9.009600 -0.580226 -3.741860 # 1 UNK
316 1 1 0.000000 -4.874250 5.179570 7.255630 # 1 UNK
317 1 1 0.000000 -4.945290 -7.344530 -8.228510 # 1 UNK
318 1 1 0.000000 9.001830 10.347200 -1.116820 # 1 UNK
319 1 1 0.000000 -8.087970 3.838610 3.249980 # 1 UNK
320 1 1 0.000000 -4.972320 -1.843230 -9.617130 # 1 UNK
321 1 1 0.000000 9.638250 10.780500 4.957520 # 1 UNK
322 1 1 0.000000 3.356750 -4.482710 8.990230 # 1 UNK
323 1 1 0.000000 -8.224110 -0.659592 0.807441 # 1 UNK
324 1 1 0.000000 -8.135590 5.130140 9.563950 # 1 UNK
325 1 1 0.000000 1.306570 3.284570 -9.085730 # 1 UNK
326 1 1 0.000000 -4.374410 9.347010 4.136460 # 1 UNK
327 1 1 0.000000 -5.905380 -4.037390 5.825210 # 1 UNK
328 1 1 0.000000 6.705440 -3.187120 -9.574340 # 1 UNK
329 1 1 0.000000 -4.241450 6.891960 2.359390 # 1 UNK
330 1 1 0.000000 4.449090 -1.661960 -10.284200 # 1 UNK
331 1 1 0.000000 -2.272400 8.843290 -3.695470 # 1 UNK
332 1 1 0.000000 -10.403000 -10.752700 -8.772340 # 1 UNK
333 1 1 0.000000 10.884400 -3.579260 -3.094080 # 1 UNK
334 1 1 0.000000 -0.557252 1.150800 9.270990 # 1 UNK
335 1 1 0.000000 -0.466484 -0.846358 -9.392190 # 1 UNK
336 1 1 0.000000 4.729670 -3.955290 -0.564678 # 1 UNK
337 1 1 0.000000 3.127040 -10.175900 4.382640 # 1 UNK
338 1 1 0.000000 3.539530 10.845700 5.255080 # 1 UNK
339 1 1 0.000000 5.863710 -10.199000 0.966081 # 1 UNK
340 1 1 0.000000 -1.296340 3.243430 2.507810 # 1 UNK
341 1 1 0.000000 6.545460 -4.208060 -5.741300 # 1 UNK
342 1 1 0.000000 10.366000 -3.905170 7.060390 # 1 UNK
343 1 1 0.000000 -7.336670 -0.872221 -7.773230 # 1 UNK
344 1 1 0.000000 -5.228680 -1.653120 7.018840 # 1 UNK
345 1 1 0.000000 -5.440770 1.561460 -3.278510 # 1 UNK
346 1 1 0.000000 -2.211490 -9.448260 -10.068200 # 1 UNK
347 1 1 0.000000 3.124560 3.373530 -8.959320 # 1 UNK
348 1 1 0.000000 -10.518700 3.702190 -0.884752 # 1 UNK
349 1 1 0.000000 -6.692600 -10.101600 5.986010 # 1 UNK
350 1 1 0.000000 -7.734540 -5.111900 5.112550 # 1 UNK
351 1 1 0.000000 3.526280 -4.430340 1.653640 # 1 UNK
352 1 1 0.000000 2.396270 -1.038540 -8.231610 # 1 UNK
353 1 1 0.000000 -2.964660 7.340570 -8.760130 # 1 UNK
354 1 1 0.000000 -9.784270 6.833310 7.107570 # 1 UNK
355 1 1 0.000000 -8.769330 9.997450 -0.260382 # 1 UNK
356 1 1 0.000000 9.626060 8.313740 -5.447430 # 1 UNK
357 1 1 0.000000 -9.249470 3.188050 -6.917450 # 1 UNK
358 1 1 0.000000 -0.934934 -6.611970 -4.230860 # 1 UNK
359 1 1 0.000000 -8.829500 6.395510 -0.853591 # 1 UNK
360 1 1 0.000000 -0.945948 7.687520 -8.837510 # 1 UNK
361 1 1 0.000000 9.055840 2.160740 1.772200 # 1 UNK
362 1 1 0.000000 -5.788560 4.481670 8.952770 # 1 UNK
363 1 1 0.000000 -0.411008 6.621950 9.949730 # 1 UNK
364 1 1 0.000000 -9.844030 -8.370450 -3.371560 # 1 UNK
365 1 1 0.000000 8.742230 4.216300 4.662970 # 1 UNK
366 1 1 0.000000 9.543190 -7.719570 6.499510 # 1 UNK
367 1 1 0.000000 -5.352200 -3.906070 -7.265870 # 1 UNK
368 1 1 0.000000 1.138490 -5.987060 10.347700 # 1 UNK
369 1 1 0.000000 1.193970 -6.709190 -3.994880 # 1 UNK
370 1 1 0.000000 4.381410 7.397580 5.991280 # 1 UNK
371 1 1 0.000000 0.220323 -10.578800 -0.862554 # 1 UNK
372 1 1 0.000000 -2.760570 -1.536110 -9.308270 # 1 UNK
373 1 1 0.000000 5.238790 9.399990 -2.108330 # 1 UNK
374 1 1 0.000000 -3.393680 -4.579420 -2.729360 # 1 UNK
375 1 1 0.000000 -0.099486 6.203490 3.236140 # 1 UNK
376 1 1 0.000000 7.068300 7.824340 -1.527380 # 1 UNK
377 1 1 0.000000 -10.025300 0.678549 -10.269200 # 1 UNK
378 1 1 0.000000 -6.793890 -6.402290 -4.186180 # 1 UNK
379 1 1 0.000000 1.768710 -10.371400 -0.769476 # 1 UNK
380 1 1 0.000000 10.029000 -7.259140 3.758230 # 1 UNK
381 1 1 0.000000 3.759700 -0.330145 4.137800 # 1 UNK
382 1 1 0.000000 -3.125530 -10.017100 -6.087970 # 1 UNK
383 1 1 0.000000 -4.364170 6.468070 -4.180300 # 1 UNK
384 1 1 0.000000 4.202620 -5.428590 -9.839480 # 1 UNK
385 1 1 0.000000 2.991790 -6.648180 5.811870 # 1 UNK
386 1 1 0.000000 3.044820 -7.602640 1.756070 # 1 UNK
387 1 1 0.000000 -4.131010 -4.764130 7.743010 # 1 UNK
388 1 1 0.000000 -2.598910 -10.542600 -8.311420 # 1 UNK
389 1 1 0.000000 -6.290430 -2.948460 -5.561480 # 1 UNK
390 1 1 0.000000 2.816180 6.481000 -2.810270 # 1 UNK
391 1 1 0.000000 -6.362760 3.745130 0.165200 # 1 UNK
392 1 1 0.000000 5.878170 -0.400271 -0.796106 # 1 UNK
393 1 1 0.000000 -7.067050 -5.839830 9.358950 # 1 UNK
394 1 1 0.000000 5.372260 -1.501370 -4.141050 # 1 UNK
395 1 1 0.000000 -3.470120 -4.281390 -4.069480 # 1 UNK
396 1 1 0.000000 4.501310 8.407590 -8.200060 # 1 UNK
397 1 1 0.000000 3.917030 5.527820 -4.836250 # 1 UNK
398 1 1 0.000000 5.780640 3.793370 -9.505190 # 1 UNK
399 1 1 0.000000 -2.158550 4.257190 -0.082080 # 1 UNK
400 1 1 0.000000 -4.992000 4.169620 7.075070 # 1 UNK
401 1 1 0.000000 6.157250 1.509650 5.865780 # 1 UNK
402 1 1 0.000000 7.468080 -3.327990 -9.284000 # 1 UNK
403 1 1 0.000000 8.544630 6.376540 1.402730 # 1 UNK
404 1 1 0.000000 2.976190 -5.418010 -9.373570 # 1 UNK
405 1 1 0.000000 -4.853700 -1.449050 2.541500 # 1 UNK
406 1 1 0.000000 -4.035700 10.410200 -10.817600 # 1 UNK
407 1 1 0.000000 -4.990800 -1.338420 10.606600 # 1 UNK
408 1 1 0.000000 1.499870 -6.320770 7.942070 # 1 UNK
409 1 1 0.000000 0.624447 -7.898960 -3.371010 # 1 UNK
410 1 1 0.000000 -4.710300 6.496120 9.269840 # 1 UNK
411 1 1 0.000000 -7.142320 8.893700 -3.107440 # 1 UNK
412 1 1 0.000000 8.801160 5.042660 -8.704530 # 1 UNK
413 1 1 0.000000 10.800000 -9.754470 -10.246100 # 1 UNK
414 1 1 0.000000 1.018040 4.907430 2.128230 # 1 UNK
415 1 1 0.000000 -1.656140 0.991461 0.022238 # 1 UNK
416 1 1 0.000000 -8.980690 -2.454530 9.236660 # 1 UNK
417 1 1 0.000000 -4.936960 1.892150 2.325230 # 1 UNK
418 1 1 0.000000 1.922370 1.758760 -5.550550 # 1 UNK
419 1 1 0.000000 -10.322100 9.966370 -4.617120 # 1 UNK
420 1 1 0.000000 6.071230 -3.906960 7.289160 # 1 UNK
421 1 1 0.000000 -4.864460 -4.364850 7.596330 # 1 UNK
422 1 1 0.000000 1.825940 -10.872200 7.681650 # 1 UNK
423 1 1 0.000000 -7.316480 4.807110 -1.298890 # 1 UNK
424 1 1 0.000000 -5.824850 8.744490 6.478760 # 1 UNK
425 1 1 0.000000 7.043370 0.793957 -4.380960 # 1 UNK
426 1 1 0.000000 -1.893550 -7.688880 4.747980 # 1 UNK
427 1 1 0.000000 9.901660 0.851323 -1.629360 # 1 UNK
428 1 1 0.000000 10.176300 -0.561490 10.068400 # 1 UNK
429 1 1 0.000000 -9.494910 -4.882220 9.420100 # 1 UNK
430 1 1 0.000000 -5.527980 0.315867 -4.419110 # 1 UNK
431 1 1 0.000000 -8.575430 -4.277040 8.275050 # 1 UNK
432 1 1 0.000000 6.249360 6.557980 -10.341200 # 1 UNK
433 1 1 0.000000 -0.947486 7.564380 -10.876200 # 1 UNK
434 1 1 0.000000 7.884510 8.003480 3.909860 # 1 UNK
435 1 1 0.000000 -3.897550 -5.594690 8.313780 # 1 UNK
436 1 1 0.000000 -3.900980 -6.171790 -6.003240 # 1 UNK
437 1 1 0.000000 -10.255300 6.066150 9.719220 # 1 UNK
438 1 1 0.000000 0.369805 -9.127470 -4.828590 # 1 UNK
439 1 1 0.000000 9.913140 4.686660 -0.380375 # 1 UNK
440 1 1 0.000000 0.360835 -2.705180 8.733340 # 1 UNK
441 1 1 0.000000 3.630810 9.151810 0.730875 # 1 UNK
442 1 1 0.000000 4.405300 5.529830 2.794670 # 1 UNK
443 1 1 0.000000 -1.387020 7.528570 7.017570 # 1 UNK
444 1 1 0.000000 9.383650 -2.120210 -0.347816 # 1 UNK
445 1 1 0.000000 -8.442880 -0.014050 5.499520 # 1 UNK
446 1 1 0.000000 2.393870 -4.584190 -1.514850 # 1 UNK
447 1 1 0.000000 -6.687690 -7.437820 -7.721530 # 1 UNK
448 1 1 0.000000 -2.278640 -3.554500 5.036680 # 1 UNK
449 1 1 0.000000 -9.412650 4.127050 10.000300 # 1 UNK
450 1 1 0.000000 10.925500 0.843719 10.691900 # 1 UNK
451 1 1 0.000000 1.940380 6.844510 -0.741671 # 1 UNK
452 1 1 0.000000 -1.906320 -3.564180 5.858390 # 1 UNK
453 1 1 0.000000 4.280260 6.716700 8.476930 # 1 UNK
454 1 1 0.000000 6.030110 -3.482780 -5.878270 # 1 UNK
455 1 1 0.000000 -6.828440 -3.596950 -0.697532 # 1 UNK
456 1 1 0.000000 4.955100 -5.804900 5.201900 # 1 UNK
457 1 1 0.000000 -4.092800 -2.868420 9.912040 # 1 UNK
458 1 1 0.000000 -2.462910 3.382670 10.417100 # 1 UNK
459 1 1 0.000000 1.494310 -4.038650 10.636200 # 1 UNK
460 1 1 0.000000 9.674560 3.484030 -0.988841 # 1 UNK
461 1 1 0.000000 2.513280 -0.549043 -0.387687 # 1 UNK
462 1 1 0.000000 10.858400 6.325820 7.278960 # 1 UNK
463 1 1 0.000000 -7.624630 -3.597840 9.432320 # 1 UNK
464 1 1 0.000000 -0.778942 1.487760 0.171373 # 1 UNK
465 1 1 0.000000 2.021390 -6.333040 -5.752570 # 1 UNK
466 1 1 0.000000 -4.634130 -0.464451 2.058440 # 1 UNK
467 1 1 0.000000 2.247360 8.445500 -3.853000 # 1 UNK
468 1 1 0.000000 2.501970 1.284600 4.876930 # 1 UNK
469 1 1 0.000000 1.753840 9.697420 -8.466490 # 1 UNK
470 1 1 0.000000 -8.303370 -10.009100 9.964280 # 1 UNK
471 1 1 0.000000 -5.980000 -4.901110 4.296440 # 1 UNK
472 1 1 0.000000 6.120520 4.707030 -2.502640 # 1 UNK
473 1 1 0.000000 2.505720 -6.355630 3.830780 # 1 UNK
474 1 1 0.000000 -1.077210 -10.361000 6.413000 # 1 UNK
475 1 1 0.000000 4.921500 3.261330 0.461374 # 1 UNK
476 1 1 0.000000 6.291260 -9.015710 0.887294 # 1 UNK
477 1 1 0.000000 -10.712300 2.463870 7.244810 # 1 UNK
478 1 1 0.000000 -5.014530 -3.503170 2.767100 # 1 UNK
479 1 1 0.000000 4.849250 -5.033230 -9.247650 # 1 UNK
480 1 1 0.000000 5.098640 4.229480 -9.926900 # 1 UNK
481 1 1 0.000000 -5.343030 -6.186990 8.975940 # 1 UNK
482 1 1 0.000000 -1.634710 5.437170 -7.683260 # 1 UNK
483 1 1 0.000000 10.904100 -1.247880 9.985770 # 1 UNK
484 1 1 0.000000 10.456600 4.227380 9.763870 # 1 UNK
485 1 1 0.000000 10.003800 8.855270 8.677030 # 1 UNK
486 1 1 0.000000 -11.007900 -0.411155 6.114550 # 1 UNK
487 1 1 0.000000 -7.270660 -2.863800 3.987580 # 1 UNK
488 1 1 0.000000 -2.229220 -5.985350 -1.011340 # 1 UNK
489 1 1 0.000000 -10.854700 -4.355350 -8.471450 # 1 UNK
490 1 1 0.000000 7.779510 -4.825690 2.753050 # 1 UNK
491 1 1 0.000000 3.121740 11.005300 7.559290 # 1 UNK
492 1 1 0.000000 -3.026710 -4.557650 4.579020 # 1 UNK
493 1 1 0.000000 -3.601320 1.811340 -0.634665 # 1 UNK
494 1 1 0.000000 4.145890 3.062430 -2.002650 # 1 UNK
495 1 1 0.000000 -4.685230 -9.499190 -0.274701 # 1 UNK
496 1 1 0.000000 -10.328200 -4.809660 10.349300 # 1 UNK
497 1 1 0.000000 -5.145510 0.921597 -7.634200 # 1 UNK
498 1 1 0.000000 -8.078590 -1.980950 3.545210 # 1 UNK
499 1 1 0.000000 5.755460 -4.744430 -8.825960 # 1 UNK
500 1 1 0.000000 -5.667530 -9.694730 5.496030 # 1 UNK
501 1 1 0.000000 10.207900 8.222040 3.263090 # 1 UNK
502 1 1 0.000000 -0.992325 -2.052970 4.033900 # 1 UNK
503 1 1 0.000000 -7.368220 4.293440 -6.734670 # 1 UNK
504 1 1 0.000000 11.002800 -7.981090 -10.313800 # 1 UNK
505 1 1 0.000000 1.120620 -9.281180 -2.872550 # 1 UNK
506 1 1 0.000000 -6.917470 -4.222590 -7.865090 # 1 UNK
507 1 1 0.000000 -9.513410 3.828170 5.723470 # 1 UNK
508 1 1 0.000000 4.579630 9.230810 -2.819920 # 1 UNK
509 1 1 0.000000 -4.235200 10.858300 -6.685420 # 1 UNK
510 1 1 0.000000 -1.000660 -1.675890 -3.665080 # 1 UNK
511 1 1 0.000000 -7.881960 9.124460 9.125670 # 1 UNK
512 1 1 0.000000 -10.860400 6.627740 9.403530 # 1 UNK
513 1 1 0.000000 0.734947 -7.246760 -1.568240 # 1 UNK
514 1 1 0.000000 9.467580 0.154830 -6.108790 # 1 UNK
515 1 1 0.000000 -1.968330 -5.167760 0.675952 # 1 UNK
516 1 1 0.000000 0.979094 7.137310 -10.820500 # 1 UNK
517 1 1 0.000000 -4.902770 5.868380 3.824680 # 1 UNK
518 1 1 0.000000 -6.449510 0.233577 2.961540 # 1 UNK
519 1 1 0.000000 -4.012620 1.420460 -2.857670 # 1 UNK
520 1 1 0.000000 6.286100 6.528280 5.286770 # 1 UNK
521 1 1 0.000000 -0.943600 -8.381090 7.078620 # 1 UNK
522 1 1 0.000000 8.607210 2.956270 9.393900 # 1 UNK
523 1 1 0.000000 -5.659980 -9.944480 1.719490 # 1 UNK
524 1 1 0.000000 -1.481980 -6.495150 7.459480 # 1 UNK
525 1 1 0.000000 -10.622400 -2.511610 3.963010 # 1 UNK
526 1 1 0.000000 -4.218640 -5.904930 -8.688510 # 1 UNK
527 1 1 0.000000 1.213270 10.058700 -7.621930 # 1 UNK
528 1 1 0.000000 -8.335450 7.838380 -0.600050 # 1 UNK
529 1 1 0.000000 -6.930780 7.353160 -5.127820 # 1 UNK
530 1 1 0.000000 -7.470580 -2.406150 -8.851130 # 1 UNK
531 1 1 0.000000 2.769290 4.078600 -3.546220 # 1 UNK
532 1 1 0.000000 6.385650 -5.663860 -10.191900 # 1 UNK
533 1 1 0.000000 3.496800 -6.582150 -0.266857 # 1 UNK
534 1 1 0.000000 -1.561130 1.913180 3.816260 # 1 UNK
535 1 1 0.000000 5.879460 -2.969190 -9.488270 # 1 UNK
536 1 1 0.000000 4.922660 3.593510 -10.539300 # 1 UNK
537 1 1 0.000000 7.660880 0.761144 7.043840 # 1 UNK
538 1 1 0.000000 2.667780 -0.935812 -7.387520 # 1 UNK
539 1 1 0.000000 -1.107720 -0.466294 10.688700 # 1 UNK
540 1 1 0.000000 -8.584290 -0.628299 9.166960 # 1 UNK
541 1 1 0.000000 -9.133430 8.705950 -10.967700 # 1 UNK
542 1 1 0.000000 -1.464050 1.122020 4.016300 # 1 UNK
543 1 1 0.000000 10.248000 7.095860 3.583250 # 1 UNK
544 1 1 0.000000 1.732590 -0.185488 8.060340 # 1 UNK
545 1 1 0.000000 -9.550260 10.962000 4.237930 # 1 UNK
546 1 1 0.000000 -3.438190 -10.802800 0.636371 # 1 UNK
547 1 1 0.000000 5.557600 4.768130 10.625100 # 1 UNK
548 1 1 0.000000 9.070770 8.924150 1.718710 # 1 UNK
549 1 1 0.000000 6.714970 0.321938 -5.440070 # 1 UNK
550 1 1 0.000000 3.314500 1.298110 -4.552070 # 1 UNK
551 1 1 0.000000 8.633900 3.956330 -4.713210 # 1 UNK
552 1 1 0.000000 -11.362500 9.970690 4.777540 # 1 UNK