ITEM: TIMESTEP
0
ITEM: NUMBER OF ATOMS
6912
ITEM: BOX BOUNDS pp pp pp
-11.0624 11.0216
-10.9686 11.1155
-10.99 11.094
ITEM: ATOMS id type xu yu zu
 1 1 2.19754 -3.39175 3.70054
 2 1 6.87411 -3.84913 6.68601
 3 1 -2.13386 2.40674 -5.22438
 4 1 -10.8985 -3.46015 6.79933
 5 1 6.98649 3.6892 0.893835
 6 1 -4.31452 -10.8041 -1.68305
 7 1 6.78481 4.57265 0.513638
 8 1 5.45204 7.54586 9.83799
 9 1 -8.92311 1.33219 8.68962
 10 1 -6.79039 0.598251 -6.73843
 11 1 -10.5936 3.39607 -6.83278
 12 1 10.0279 -3.95683 -10.4735
 13 1 -10.3529 -0.386876 -4.58186
 14 1 -5.66555 -4.39012 -9.89457
 15 1 -7.94053 9.72643 0.87892
 16 1 -9.26183 10.4559 -7.60134
 17 1 -6.89403 -8.44504 -0.143879
 18 1 -6.63416 -2.34228 3.77313
 19 1 -7.26451 -4.44697 -4.67144
 20 1 -1.59733 -7.40486 -2.05595
 21 1 6.75851 2.24577 10.1001
 22 1 -9.20603 9.49978 5.42168
 23 1 5.85444 -7.17743 3.22547
 24 1 -6.72616 -7.27713 8.01833
 25 1 -9.53939 2.32174 -4.005
 26 1 4.39102 -1.48833 -7.06703
 27 1 7.38685 2.11685 -8.18548
 28 1 -2.36571 -6.2512 -8.3594
 29 1 4.69188 -6.44925 -10.7978
 30 1 0.343302 -4.67289 -2.4908
 31 1 -1.90034 -8.95381 0.0675071
 32 1 -2.27541 -6.18628 -10.7495
 33 1 -5.83735 -9.69388 -4.6384
 34 1 8.7566 -2.28933 1.87996
 35 1 6.10722 2.443 -6.25008
 36 1 10.5148 -10.8693 9.79085
 37 1 -0.702183 4.5287 -1.14488
 38 1 1.94625 6.43162 -2.46008
 39 1 -9.27283 -3.32123 -6.37022
 40 1 3.42891 -2.35389 10.2489
 41 1 0.167863 7.03057 -5.98062
 42 1 2.72411 -9.97001 8.57001
 43 1 -4.13841 -9.39149 -3.88747
 44 1 6.66084 -9.33159 3.0007
 45 1 0.841831 -4.35516 2.63525
 46 1 6.61624 -5.82301 2.92336
 47 1 -10.6294 5.39186 1.52985
 48 1 -8.2209 -1.5124 7.68081
 49 1 6.70926 -10.9119 7.25983
 50 1 -9.00942 -9.30051 -5.79444
 51 1 0.758824 0.0225121 5.05556
 52 1 -6.16235 1.94288 -0.982086
 53 1 -2.86229 6.73467 -10.7611
 54 1 4.44564 3.24009 3.08611
 55 1 -1.67955 -9.66317 -4.97346
 56 1 -7.02971 3.46665 3.00497
 57 1 6.39019 5.62835 4.50636
 58 1 -3.52718 -0.632868 -5.22703
 59 1 4.23388 -9.88494 -6.82448
 60 1 -7.20621 -8.07091 -7.79831
 61 1 7.57795 -5.46468 -3.96352
 62 1 8.78497 -0.7656 6.76124
 63 1 -5.58016 -3.10223 -6.00666
 64 1 2.01357 5.47696 3.17079
 65 1 11.1671 -1.62901 -8.58197
 66 1 10.3111 3.27573 -6.48603
 67 1 -5.26077 10.3029 -8.15848
 68 1 0.371026 -10.5607 -4.13378
 69 1 5.09795 2.70161 -10.9035
 70 1 -2.46177 -6.11726 4.17664
 71 1 -3.47628 -10.637 -8.52557
 72 1 8.86055 1.25843 -2.7944
 73 1 -5.82628 -5.01215 -7.43105
 74 1 10.6929 1.95427 10.7565
 75 1 -1.3084 8.80554 8.78606
 76 1 -4.8311 10.1744 -3.94164
 77 1 -6.58482 1.24577 5.88333
 78 1 3.49804 -6.73906 -8.99617
 79 1 -3.61378 8.24564 -5.78365
 80 1 3.27341 7.43981 -3.40444
 81 1 -0.624454 -4.30224 5.17223
 82 1 -9.70574 9.19184 -6.54983
 83 1 -11.1854 9.60789 0.586745
 84 1 -3.73585 -9.91127 3.91013
 85 1 -6.3106 7.55052 -1.21844
 86 1 3.72671 -0.951573 8.4973
 87 1 4.22145 -4.68119 -4.92461
 88 1 -8.7699 7.2263 -10.3375
 89 1 7.53516 -10.6378 -1.87715
 90 1 2.24826 -1.99253 -7.03383
 91 1 6.09562 -10.6129 -2.10427
 92 1 -10.2497 10.821 -0.843983
 93 1 9.53412 -5.12258 -7.32726
 94 1 -10.0133 1.7596 9.42347
 95 1 2.52093 -8.73328 -1.79498
 96 1 -6.46763 8.56901 2.89588
 97 1 2.71495 -7.76864 -6.96541
 98 1 6.35844 -10.367 -9.78039
 99 1 -8.75797 6.38048 -7.02303
 100 1 10.0184 -0.781685 -1.83386
 101 1 2.01819 0.437194 -7.1885
 102 1 4.91036 5.93225 -3.02921
 103 1 -9.92564 -1.13072 4.68029
 104 1 8.90474 -1.25979 0.209789
 105 1 8.25939 -1.98199 -1.85084
 106 1 -6.44017 4.09431 9.59147
 107 1 8.15311 0.995529 -3.33723
 108 1 6.3691 1.08749 -1.52091
 109 1 9.46848 8.08548 -3.15837
 110 1 -2.99322 -0.13374 5.7352
 111 1 1.0036 -5.95896 -5.65438
 112 1 -9.03338 -0.183106 7.23522
 113 1 -2.16093 6.56225 -0.0719146
 114 1 8.71747 7.61182 -4.66535
 115 1 -2.18502 7.41364 -4.69339
 116 1 -5.40923 -5.50128 -9.80792
 117 1 4.6699 -8.25429 8.04464
 118 1 -8.3802 10.5805 5.66859
 119 1 -5.17772 4.6608 -10.6803
 120 1 4.94865 -6.37063 3.12113
 121 1 8.0529 6.54128 -9.24589
 122 1 1.26562 0.580811 -9.50023
 123 1 8.51031 -8.80267 -1.41174
 124 1 1.424 -0.66275 -1.40219
 125 1 -2.4704 -0.838895 5.99844
 126 1 -9.14327 -3.87544 6.09357
 127 1 6.74178 2.46338 -5.65899
 128 1 1.29141 5.46738 -10.2551
 129 1 1.75824 -8.51907 -7.74019
 130 1 7.41997 -5.81863 4.48752
 131 1 -1.89239 -7.39071 9.65251
 132 1 -6.53179 -4.54251 -2.33181
 133 1 7.85212 1.73423 -8.85683
 134 1 10.3381 6.29378 -10.815
 135 1 3.24854 -0.495054 0.0498294
 136 1 -0.952375 6.20652 6.99546
 137 1 4.9488 -7.94832 -8.59962
 138 1 0.238421 -8.64598 10.8197
 139 1 3.93762 -8.57115 9.6156
 140 1 7.31196 -4.66666 6.7774
 141 1 6.02262 -7.91458 5.0114
 142 1 -8.21866 7.76347 4.04336
 143 1 9.79259 -0.114708 -7.14422
 144 1 -8.18393 0.574008 -1.32156
 145 1 8.03015 -4.36966 -4.80464
 146 1 1.32594 2.20948 -6.45569
 147 1 3.84046 -9.86619 -4.47278
 148 1 -7.03958 -5.49599 -9.61081
 149 1 -0.646931 -9.49429 -7.90712
 150 1 7.71637 0.978805 -9.07848
 151 1 9.65277 -6.53485 8.84701
 152 1 7.14786 2.72996 -0.511327
 153 1 -9.01802 6.10069 7.4603
 154 1 7.6716 5.89201 4.47274
 155 1 4.07206 1.24636 -2.97604
 156 1 1.06011 -2.86672 -0.708724
 157 1 0.798566 -2.07544 -8.35133
 158 1 -3.46657 7.21639 9.61636
 159 1 1.70998 7.25434 -7.53853
 160 1 -4.71452 8.19094 -7.5765
 161 1 -5.39275 1.66347 7.88641
 162 1 0.687679 7.10663 4.96505
 163 1 -8.39344 7.52165 4.9119
 164 1 -0.753611 1.87376 5.56284
 165 1 -6.05713 -4.5308 1.66407
 166 1 9.41331 11.0498 -5.62878
 167 1 0.615925 6.37613 0.277977
 168 1 -7.3706 0.723806 9.55727
 169 1 -9.25383 -8.8255 -5.06102
 170 1 -4.18403 -4.81706 9.95091
 171 1 3.84036 -8.7608 -3.30954
 172 1 -2.99486 -6.37918 4.73832
 173 1 3.81432 -0.840579 -0.951209
 174 1 -0.0902675 2.37508 6.56836
 175 1 -8.62484 4.53261 -8.83943
 176 1 -1.95942 3.3384 -10.0175
 177 1 -4.59373 -1.20892 -0.0362101
 178 1 3.58768 9.01586 3.08363
 179 1 -6.48832 5.36457 -1.154
 180 1 9.88956 0.687623 -6.42819
 181 1 -3.63487 8.6319 10.5221
 182 1 9.2193 -7.41749 0.457054
 183 1 -9.12444 1.08412 -4.37576
 184 1 3.31278 5.96881 -2.2816
 185 1 -7.46172 -0.227611 5.99407
 186 1 -9.80782 -2.13642 0.212752
 187 1 7.67047 -6.53535 1.91521
 188 1 -2.97786 9.44015 -7.53258
 189 1 10.7059 2.1178 9.21076
 190 1 -5.45575 5.23578 5.46083
 191 1 1.35447 9.95836 -6.8171
 192 1 5.9898 -10.0761 -8.86657
 193 1 3.8115 9.47945 -2.47662
 194 1 -5.41882 -3.67507 3.41655
 195 1 -9.90564 10.1233 3.50046
 196 1 10.0695 -2.60203 -2.79795
 197 1 7.86478 -1.14403 8.65011
 198 1 -3.75879 -10.9824 -4.76954
 199 1 -8.04042 8.23348 9.38814
 200 1 7.56278 4.50217 5.68801
 201 1 -4.13114 -10.0991 8.84957
 202 1 -6.60964 -8.04413 -3.11983
 203 1 -3.23367 2.73293 4.03562
 204 1 -3.21437 0.033294 -3.62605
 205 1 -8.84123 8.51206 -8.10066
 206 1 -10.9258 1.62513 -10.7471
 207 1 4.65245 5.07228 -2.97856
 208 1 0.433916 3.7335 10.7583
 209 1 6.89148 -6.70421 5.96952
 210 1 10.6055 8.71751 -3.6837
 211 1 6.17406 7.2731 -9.15366
 212 1 7.78379 1.7748 4.00745
 213 1 -8.56938 10.4253 -6.73776
 214 1 2.98024 4.4681 2.17443
 215 1 3.00958 -7.95275 -7.76082
 216 1 -8.63433 -3.85136 10.7189
 217 1 6.65159 4.25881 -5.70381
 218 1 2.94732 0.711041 -7.16137
 219 1 5.54186 -5.54925 -6.34943
 220 1 -3.66829 -7.38006 3.35113
 221 1 -10.518 -7.30796 2.52676
 222 1 0.863346 -7.13438 6.62017
 223 1 -10.1937 2.92336 -0.719481
 224 1 -8.61238 9.83614 -6.20732
 225 1 -5.9946 5.64345 -4.13381
 226 1 -5.09081 -9.04466 -2.01226
 227 1 10.0119 -8.39621 7.5725
 228 1 -9.03919 2.8376 -3.09037
 229 1 8.65725 4.40553 1.51821
 230 1 4.30278 -8.22976 6.39146
 231 1 -7.19732 -10.2161 -0.85197
 232 1 -3.23395 -0.16946 -2.52691
 233 1 -10.1299 -1.79203 0.862386
 234 1 0.491908 -8.23464 -6.77334
 235 1 7.63628 8.50132 -9.93138
 236 1 -7.64604 8.71114 6.98193
 237 1 9.96161 -4.45285 -0.798817
 238 1 1.05057 0.119679 -0.235779
 239 1 9.83276 8.52256 4.79378
 240 1 3.311 4.2664 5.12735
 241 1 -2.68636 -7.19706 1.15605
 242 1 0.0705451 -6.57347 10.0608
 243 1 6.44097 1.80374 7.52885
 244 1 -8.5096 -1.62986 8.31421
 245 1 -10.0072 10.9066 0.939268
 246 1 11.0114 -1.0678 6.69999
 247 1 -4.76727 3.57863 -7.54034
 248 1 -0.698835 -4.49083 0.302094
 249 1 -4.37669 1.42102 -0.821035
 250 1 -0.537431 -4.50643 -2.43781
 251 1 0.677223 -2.6705 -7.86151
 252 1 3.90227 -10.358 -8.79943
 253 1 5.13929 -2.54479 3.62077
 254 1 4.34204 8.40988 -6.23568
 255 1 0.434218 -3.14424 7.89051
 256 1 -2.19356 -2.20573 0.427851
 257 1 -4.91094 -7.82775 -0.702903
 258 1 5.82473 8.70931 -5.65365
 259 1 -5.53081 0.859922 -8.47326
 260 1 -4.15041 4.49679 7.34206
 261 1 3.79881 10.8007 6.0976
 262 1 8.17049 -4.84546 -4.05464
 263 1 7.25058 -6.21727 -5.68856
 264 1 4.86507 5.73703 8.24109
 265 1 -3.82822 -10.4221 9.50099
 266 1 -6.35826 -8.85757 -5.22326
 267 1 3.87619 5.91667 -1.51352
 268 1 -8.18404 -8.20138 -4.75219
 269 1 -4.89865 -10.726 -5.06029
 270 1 -2.78224 3.42041 6.68281
 271 1 1.49728 -8.08298 -9.86506
 272 1 10.5697 -9.68351 -3.28425
 273 1 3.472 1.6026 0.263347
 274 1 1.96315 -7.57933 7.5843
 275 1 -1.45959 6.85547 3.52262
 276 1 -7.88765 -9.81708 -7.18458
 277 1 -10.3269 0.167109 9.06053
 278 1 3.61456 -3.07803 -5.87672
 279 1 -6.90063 -10.3981 6.64295
 280 1 10.4477 -9.70951 5.62711
 281 1 3.89123 -11.1977 -8.2311
 282 1 8.31573 0.893441 5.36019
 283 1 -0.422817 -6.20241 3.00557
 284 1 7.52519 5.15709 9.46763
 285 1 3.71167 7.15694 2.41127
 286 1 -3.35495 0.232711 9.81636
 287 1 -5.45963 6.32968 8.76705
 288 1 2.97238 8.9396 -2.00439
 289 1 -3.89857 -5.46831 9.60197
 290 1 -4.1417 -5.35123 -7.87309
 291 1 -3.3378 7.73859 -2.84364
 292 1 -6.65793 -9.47816 8.80241
 293 1 0.649154 -1.87474 0.173721
 294 1 9.82066 -0.424596 -9.9988
 295 1 -2.76028 3.85429 -8.31757
 296 1 -8.40867 7.23445 -9.46627
 297 1 -1.31284 -4.42978 -3.96838
 298 1 -8.97145 -8.07802 0.273443
 299 1 -1.90207 0.627711 -10.001
 300 1 3.3932 -8.23767 7.62773
 301 1 4.16251 -0.785815 -4.56073
 302 1 -5.55567 5.69878 -0.962846
 303 1 0.389531 1.84772 10.7261
 304 1 -4.06598 -6.24083 -4.47901
 305 1 10.5726 8.89183 4.46137
 306 1 3.26202 9.8118 0.169152
 307 1 -4.19837 1.06864 -7.87721
 308 1 -3.1395 0.156031 -1.7788
 309 1 8.06063 10.8154 -7.04089
 310 1 -9.09867 0.968582 -7.51205
 311 1 7.69214 11.0406 -2.53235
 312 1 10.5984 8.32304 -5.44621
 313 1 1.40607 9.2479 5.43326
 314 1 -9.56083 5.72504 3.19565
 315 1 -9.0096 -0.580226 -3.74186
 316 1 -4.87425 5.17957 7.25563
 317 1 -4.94529 -7.34453 -8.22851
 318 1 9.00183 10.3472 -1.11682
 319 1 -8.08797 3.83861 3.24998
 320 1 -4.97232 -1.84323 -9.61713
 321 1 9.63825 10.7805 4.95752
 322 1 3.35675 -4.48271 8.99023
 323 1 -8.22411 -0.659592 0.807441
 324 1 -8.13559 5.13014 9.56395
 325 1 1.30657 3.28457 -9.08573
 326 1 -4.37441 9.34701 4.13646
 327 1 -5.90538 -4.03739 5.82521
 328 1 6.70544 -3.18712 -9.57434
 329 1 -4.24145 6.89196 2.35939
 330 1 4.44909 -1.66196 -10.2842
 331 1 -2.2724 8.84329 -3.69547
 332 1 -10.403 -10.7527 -8.77234
 333 1 10.8844 -3.57926 -3.09408
 334 1 -0.557252 1.1508 9.27099
 335 1 -0.466484 -0.846358 -9.39219
 336 1 4.72967 -3.95529 -0.564678
 337 1 3.12704 -10.1759 4.38264
 338 1 3.53953 10.8457 5.25508
 339 1 5.86371 -10.199 0.966081
 340 1 -1.29634 3.24343 2.50781
 341 1 6.54546 -4.20806 -5.7413
 342 1 10.366 -3.90517 7.06039
 343 1 -7.33667 -0.872221 -7.77323
 344 1 -5.22868 -1.65312 7.01884
 345 1 -5.44077 1.56146 -3.27851
 346 1 -2.21149 -9.44826 -10.0682
 347 1 3.12456 3.37353 -8.95932
 348 1 -10.5187 3.70219 -0.884752
 349 1 -6.6926 -10.1016 5.98601
 350 1 -7.73454 -5.1119 5.11255
 351 1 3.52628 -4.43034 1.65364
 352 1 2.39627 -1.03854 -8.23161
 353 1 -2.96466 7.34057 -8.76013
 354 1 -9.78427 6.83331 7.10757
 355 1 -8.76933 9.99745 -0.260382
 356 1 9.62606 8.31374 -5.44743
 357 1 -9.24947 3.18805 -6.91745
 358 1 -0.934934 -6.61197 -4.23086
 359 1 -8.8295 6.39551 -0.853591
 360 1 -0.945948 7.68752 -8.83751
 361 1 9.05584 2.16074 1.7722
 362 1 -5.78856 4.48167 8.95277
 363 1 -0.411008 6.62195 9.94973
 364 1 -9.84403 -8.37045 -3.37156
 365 1 8.74223 4.2163 4.66297
 366 1 9.54319 -7.71957 6.49951
 367 1 -5.3522 -3.90607 -7.26587
 368 1 1.13849 -5.98706 10.3477
 369 1 1.19397 -6.70919 -3.99488
 370 1 4.38141 7.39758 5.99128
 371 1 0.220323 -10.5788 -0.862554
 372 1 -2.76057 -1.53611 -9.30827
 373 1 5.23879 9.39999 -2.10833
 374 1 -3.39368 -4.57942 -2.72936
 375 1 -0.0994859 6.20349 3.23614
 376 1 7.0683 7.82434 -1.52738
 377 1 -10.0253 0.678549 -10.2692
 378 1 -6.79389 -6.40229 -4.18618
 379 1 1.76871 -10.3714 -0.769476
 380 1 10.029 -7.25914 3.75823
 381 1 3.7597 -0.330145 4.1378
 382 1 -3.12553 -10.0171 -6.08797
 383 1 -4.36417 6.46807 -4.1803
 384 1 4.20262 -5.42859 -9.83948
 385 1 2.99179 -6.64818 5.81187
 386 1 3.04482 -7.60264 1.75607
 387 1 -4.13101 -4.76413 7.74301
 388 1 -2.59891 -10.5426 -8.31142
 389 1 -6.29043 -2.94846 -5.56148
 390 1 2.81618 6.481 -2.81027
 391 1 -6.36276 3.74513 0.1652
 392 1 5.87817 -0.400271 -0.796106
 393 1 -7.06705 -5.83983 9.35895
 394 1 5.37226 -1.50137 -4.14105
 395 1 -3.47012 -4.28139 -4.06948
 396 1 4.50131 8.40759 -8.20006
 397 1 3.91703 5.52782 -4.83625
 398 1 5.78064 3.79337 -9.50519
 399 1 -2.15855 4.25719 -0.0820805
 400 1 -4.992 4.16962 7.07507
 401 1 6.15725 1.50965 5.86578
 402 1 7.46808 -3.32799 -9.284
 403 1 8.54463 6.37654 1.40273
 404 1 2.97619 -5.41801 -9.37357
 405 1 -4.8537 -1.44905 2.5415
 406 1 -4.0357 10.4102 -10.8176
 407 1 -4.9908 -1.33842 10.6066
 408 1 1.49987 -6.32077 7.94207
 409 1 0.624447 -7.89896 -3.37101
 410 1 -4.7103 6.49612 9.26984
 411 1 -7.14232 8.8937 -3.10744
 412 1 8.80116 5.04266 -8.70453
 413 1 10.8 -9.75447 -10.2461
 414 1 1.01804 4.90743 2.12823
 415 1 -1.65614 0.991461 0.0222378
 416 1 -8.98069 -2.45453 9.23666
 417 1 -4.93696 1.89215 2.32523
 418 1 1.92237 1.75876 -5.55055
 419 1 -10.3221 9.96637 -4.61712
 420 1 6.07123 -3.90696 7.28916
 421 1 -4.86446 -4.36485 7.59633
 422 1 1.82594 -10.8722 7.68165
 423 1 -7.31648 4.80711 -1.29889
 424 1 -5.82485 8.74449 6.47876
 425 1 7.04337 0.793957 -4.38096
 426 1 -1.89355 -7.68888 4.74798
 427 1 9.90166 0.851323 -1.62936
 428 1 10.1763 -0.56149 10.0684
 429 1 -9.49491 -4.88222 9.4201
 430 1 -5.52798 0.315867 -4.41911
 431 1 -8.57543 -4.27704 8.27505
 432 1 6.24936 6.55798 -10.3412
 433 1 -0.947486 7.56438 -10.8762
 434 1 7.88451 8.00348 3.90986
 435 1 -3.89755 -5.59469 8.31378
 436 1 -3.90098 -6.17179 -6.00324
 437 1 -10.2553 6.06615 9.71922
 438 1 0.369805 -9.12747 -4.82859
 439 1 9.91314 4.68666 -0.380375
 440 1 0.360835 -2.70518 8.73334
 441 1 3.63081 9.15181 0.730875
 442 1 4.4053 5.52983 2.79467
 443 1 -1.38702 7.52857 7.01757
 444 1 9.38365 -2.12021 -0.347816
 445 1 -8.44288 -0.0140505 5.49952
 446 1 2.39387 -4.58419 -1.51485
 447 1 -6.68769 -7.43782 -7.72153
 448 1 -2.27864 -3.5545 5.03668
 449 1 -9.41265 4.12705 10.0003
 450 1 10.9255 0.843719 10.6919
 451 1 1.94038 6.84451 -0.741671
 452 1 -1.90632 -3.56418 5.85839
 453 1 4.28026 6.7167 8.47693
 454 1 6.03011 -3.48278 -5.87827
 455 1 -6.82844 -3.59695 -0.697532
 456 1 4.9551 -5.8049 5.2019
 457 1 -4.0928 -2.86842 9.91204
 458 1 -2.46291 3.38267 10.4171
 459 1 1.49431 -4.03865 10.6362
 460 1 9.67456 3.48403 -0.988841
 461 1 2.51328 -0.549043 -0.387687
 462 1 10.8584 6.32582 7.27896
 463 1 -7.62463 -3.59784 9.43232
 464 1 -0.778942 1.48776 0.171373
 465 1 2.02139 -6.33304 -5.75257
 466 1 -4.63413 -0.464451 2.05844
 467 1 2.24736 8.4455 -3.853
 468 1 2.50197 1.2846 4.87693
 469 1 1.75384 9.69742 -8.46649
 470 1 -8.30337 -10.0091 9.96428
 471 1 -5.98 -4.90111 4.29644
 472 1 6.12052 4.70703 -2.50264
 473 1 2.50572 -6.35563 3.83078
 474 1 -1.07721 -10.361 6.413
 475 1 4.9215 3.26133 0.461374
 476 1 6.29126 -9.01571 0.887294
 477 1 -10.7123 2.46387 7.24481
 478 1 -5.01453 -3.50317 2.7671
 479 1 4.84925 -5.03323 -9.24765
 480 1 5.09864 4.22948 -9.9269
 481 1 -5.34303 -6.18699 8.97594
 482 1 -1.63471 5.43717 -7.68326
 483 1 10.9041 -1.24788 9.98577
 484 1 10.4566 4.22738 9.76387
 485 1 10.0038 8.85527 8.67703
 486 1 -11.0079 -0.411155 6.11455
 487 1 -7.27066 -2.8638 3.98758
 488 1 -2.22922 -5.98535 -1.01134
 489 1 -10.8547 -4.35535 -8.47145
 490 1 7.77951 -4.82569 2.75305
 491 1 3.12174 11.0053 7.55929
 492 1 -3.02671 -4.55765 4.57902
 493 1 -3.60132 1.81134 -0.634665
 494 1 4.14589 3.06243 -2.00265
 495 1 -4.68523 -9.49919 -0.274701
 496 1 -10.3282 -4.80966 10.3493
 497 1 -5.14551 0.921597 -7.6342
 498 1 -8.07859 -1.98095 3.54521
 499 1 5.75546 -4.74443 -8.82596
 500 1 -5.66753 -9.69473 5.49603
 501 1 10.2079 8.22204 3.26309
 502 1 -0.992325 -2.05297 4.0339
 503 1 -7.36822 4.29344 -6.73467
 504 1 11.0028 -7.98109 -10.3138
 505 1 1.12062 -9.28118 -2.87255
 506 1 -6.91747 -4.22259 -7.86509
 507 1 -9.51341 3.82817 5.72347
 508 1 4.57963 9.23081 -2.81992
 509 1 -4.2352 10.8583 -6.68542
 510 1 -1.00066 -1.67589 -3.66508
 511 1 -7.88196 9.12446 9.12567
 512 1 -10.8604 6.62774 9.40353
 513 1 0.734947 -7.24676 -1.56824
 514 1 9.46758 0.15483 -6.10879
 515 1 -1.96833 -5.16776 0.675952
 516 1 0.979094 7.13731 -10.8205
 517 1 -4.90277 5.86838 3.82468
 518 1 -6.44951 0.233577 2.96154
 519 1 -4.01262 1.42046 -2.85767
 520 1 6.2861 6.52828 5.28677
 521 1 -0.9436 -8.38109 7.07862
 522 1 8.60721 2.95627 9.3939
 523 1 -5.65998 -9.94448 1.71949
 524 1 -1.48198 -6.49515 7.45948
 525 1 -10.6224 -2.51161 3.96301
 526 1 -4.21864 -5.90493 -8.68851
 527 1 1.21327 10.0587 -7.62193
 528 1 -8.33545 7.83838 -0.60005
 529 1 -6.93078 7.35316 -5.12782
 530 1 -7.47058 -2.40615 -8.85113
 531 1 2.76929 4.0786 -3.54622
 532 1 6.38565 -5.66386 -10.1919
 533 1 3.4968 -6.58215 -0.266857
 534 1 -1.56113 1.91318 3.81626
 535 1 5.87946 -2.96919 -9.48827
 536 1 4.92266 3.59351 -10.5393
 537 1 7.66088 0.761144 7.04384
 538 1 2.66778 -0.935812 -7.38752
 539 1 -1.10772 -0.466294 10.6887
 540 1 -8.58429 -0.628299 9.16696
 541 1 -9.13343 8.70595 -10.9677
 542 1 -1.46405 1.12202 4.0163
 543 1 10.248 7.09586 3.58325
 544 1 1.73259 -0.185488 8.06034
 545 1 -9.55026 10.962 4.23793
 546 1 -3.43819 -10.8028 0.636371
 547 1 5.5576 4.76813 10.6251
 548 1 9.07077 8.92415 1.71871
 549 1 6.71497 0.321938 -5.44007
 550 1 3.3145 1.29811 -4.55207
 551 1 8.6339 3.95633 -4.71321
 552 1 -11.3625 9.97069 4.77754
 553 1 10.2727 10.0325 0.45697
 554 1 -0.992568 6.17933 1.67339
 555 1 -4.02101 -10.5694 7.89332
 556 1 1.61746 3.95922 -7.39893
 557 1 2.57856 7.31947 5.41183
 558 1 -1.57616 -0.818267 -4.21995
 559 1 -10.6161 9.97556 8.23799
 560 1 7.99706 6.2848 1.87179
 561 1 1.74124 -0.784032 -8.66349
 562 1 2.32118 -2.1589 -0.786366
 563 1 -5.23716 4.07937 9.21938
 564 1 -1.76028 -2.95568 2.46667
 565 1 -3.2236 -0.824812 -6.87431
 566 1 -10.4653 -1.67747 3.81741
 567 1 4.3079 -6.42103 0.0841171
 568 1 0.375725 -10.8579 3.6813
 569 1 -3.33969 -8.54799 0.858877
 570 1 1.09609 -1.24115 -8.66098
 571 1 9.47293 10.3679 -2.83157
 572 1 4.3931 -1.1222 6.86908
 573 1 -9.29454 -3.89821 4.71284
 574 1 -4.8449 2.17784 0.611573
 575 1 2.65814 6.51354 9.59686
 576 1 -4.04831 5.24638 -3.01437
 577 1 -10.0208 7.49427 -6.87112
 578 1 -7.96622 -6.86339 -2.32604
 579 1 -9.06507 -8.48654 -3.22598
 580 1 -5.403 -0.808982 -3.05586
 581 1 -2.84334 5.09287 4.19644
 582 1 -3.89386 -0.115644 -1.11899
 583 1 -10.1694 7.33755 4.26293
 584 1 3.22847 5.67426 -0.851443
 585 1 -10.878 -3.56471 -8.29702
 586 1 -4.04878 -10.6363 -2.59559
 587 1 0.250034 6.42366 5.40584
 588 1 7.07424 9.79589 2.01246
 589 1 7.9676 2.39632 9.02164
 590 1 10.4363 -10.7641 -1.60149
 591 1 9.66061 9.38634 -9.31848
 592 1 8.01947 3.872 -9.68457
 593 1 9.58968 6.03399 -10.4775
 594 1 2.08816 9.14318 7.04813
 595 1 -1.20218 -10.1346 -6.00944
 596 1 1.55062 -5.10888 9.19477
 597 1 -6.94149 6.81625 -3.2136
 598 1 8.48276 0.994798 3.74707
 599 1 0.48566 -9.5766 -4.16698
 600 1 9.94679 4.21216 8.48694
 601 1 7.11661 -9.08331 -11.0503
 602 1 9.99384 -4.84881 8.72606
 603 1 6.74535 -8.48586 -7.6271
 604 1 0.697711 -1.14465 -7.06939
 605 1 -9.22476 -4.77267 4.79644
 606 1 -3.51812 -1.03938 4.48572
 607 1 1.15357 -10.4971 -6.07346
 608 1 1.47391 -1.63683 -10.526
 609 1 6.1972 -8.22792 6.66249
 610 1 -8.5863 -6.89505 -6.12698
 611 1 -10.1425 7.87578 -0.14774
 612 1 9.02066 6.98041 3.69232
 613 1 -2.4366 0.189881 2.99742
 614 1 -9.6051 -3.81663 1.83017
 615 1 3.56085 2.19204 -6.50888
 616 1 2.90018 4.35273 -6.09354
 617 1 5.71037 1.36062 -10.219
 618 1 -5.73263 -6.96467 -5.56229
 619 1 -5.62908 8.42791 9.94996
 620 1 4.21721 -4.17276 -2.97794
 621 1 3.61831 -10.8098 -2.48625
 622 1 -7.53264 -9.78141 2.26076
 623 1 3.35097 -4.06683 1.04769
 624 1 -3.50215 -5.2275 -10.4435
 625 1 4.52936 -2.85336 6.81384
 626 1 -7.44452 0.176547 -4.41444
 627 1 -9.15378 -0.99626 -8.13244
 628 1 -1.95419 3.6225 2.24504
 629 1 7.06059 -3.99973 -0.384138
 630 1 -8.97206 -5.80859 8.96597
 631 1 -8.18909 -10.9945 -5.15343
 632 1 -1.95272 8.34998 8.70956
 633 1 -8.2089 6.75788 2.41219
 634 1 2.75061 -4.55572 -6.76715
 635 1 -10.1632 4.7457 9.02436
 636 1 6.07385 2.96827 7.8857
 637 1 2.40336 9.21268 -6.00952
 638 1 -1.65377 -2.19964 7.49383
 639 1 5.7061 -5.83875 -7.11461
 640 1 -6.40387 -3.85834 6.76675
 641 1 2.38761 5.84026 6.90415
 642 1 6.73622 -6.87375 -2.03271
 643 1 -7.75998 -6.72754 -8.21004
 644 1 4.76647 -6.31274 -1.73406
 645 1 10.2695 10.7862 -2.41389
 646 1 4.00977 -0.576703 6.21991
 647 1 -1.31319 4.20751 2.30998
 648 1 4.80237 -6.61397 -3.99977
 649 1 0.235418 0.724754 -7.61915
 650 1 1.66262 -10.2428 -2.53002
 651 1 -4.05925 5.06523 5.49202
 652 1 -6.21868 -7.05163 3.20729
 653 1 -9.22923 9.98644 1.46769
 654 1 1.44193 2.80342 8.68996
 655 1 2.66346 3.37893 -6.52418
 656 1 10.9494 8.69439 -1.56769
 657 1 1.06206 -2.48859 0.249131
 658 1 10.5265 5.07572 -9.32744
 659 1 10.3794 -10.9254 -10.2115
 660 1 4.4925 2.7759 -10.2108
 661 1 -10.8269 -5.15747 -6.98103
 662 1 5.7327 -7.40585 -6.58822
 663 1 7.70098 -6.97753 -0.462126
 664 1 -10.1026 -8.80684 -4.65894
 665 1 -7.15344 6.78941 2.16639
 666 1 8.39516 -7.14272 -8.08883
 667 1 -5.94692 9.55692 5.27346
 668 1 -5.84795 -3.05158 -4.84223
 669 1 8.80939 -2.18281 9.93067
 670 1 -0.637749 4.98946 -1.8884
 671 1 -7.63009 -3.6213 0.0432163
 672 1 -10.5249 -7.95297 3.83556
 673 1 -1.05109 0.285972 -0.233348
 674 1 9.99954 -11.0077 -8.39816
 675 1 9.10517 8.37621 -1.79056
 676 1 1.89144 2.51084 -10.4049
 677 1 -8.42591 2.56364 1.88748
 678 1 2.23475 8.51489 10.4547
 679 1 -7.28261 -8.85259 10.549
 680 1 0.576504 -8.29252 -7.60156
 681 1 -1.5426 8.38585 -1.91965
 682 1 3.47971 -3.56738 2.41308
 683 1 -3.55147 -10.5156 -1.9692
 684 1 3.63728 0.165702 -4.72194
 685 1 -2.24971 -7.30078 -10.0195
 686 1 7.88822 5.87679 -3.29353
 687 1 1.3981 -9.39227 3.96024
 688 1 -7.48909 4.40444 6.36504
 689 1 -8.66558 10.6152 8.40203
 690 1 9.14114 -0.229115 -5.44057
 691 1 5.33571 1.25301 2.31675
 692 1 -8.40207 3.43628 -8.83386
 693 1 8.18387 1.45686 6.30783
 694 1 0.362996 2.43239 -2.83082
 695 1 -2.77383 -4.44532 -0.378208
 696 1 1.17124 6.4722 3.386
 697 1 -5.967 -5.41221 0.0138763
 698 1 -5.31575 5.33936 -6.6734
 699 1 7.55052 9.22302 -10.1693
 700 1 -2.12326 9.99479 9.98813
 701 1 -2.26597 3.75313 6.05672
 702 1 10.6606 -1.8464 -9.29179
 703 1 10.2344 1.54104 8.38582
 704 1 -9.3921 4.58681 -1.84959
 705 1 -7.32178 4.3096 2.94525
 706 1 2.89382 6.86552 8.90372
 707 1 0.785883 -2.49376 1.52296
 708 1 -2.84582 -6.66163 -3.6803
 709 1 9.91699 -9.38852 4.80495
 710 1 -5.74271 -1.37332 10.7063
 711 1 2.91682 -10.2747 -4.38193
 712 1 3.92082 2.35526 -7.42173
 713 1 -8.84683 -5.26721 7.05466
 714 1 -9.09832 -0.0599605 -2.97134
 715 1 0.169263 -10.7986 -8.45698
 716 1 1.85368 -5.82082 5.66368
 717 1 3.73626 8.71645 -8.50362
 718 1 8.89992 5.84877 -10.2747
 719 1 0.781665 10.4272 5.18575
 720 1 0.815727 5.5937 -1.98438
 721 1 2.47328 -2.3291 8.4445
 722 1 3.39314 1.31949 3.49115
 723 1 -8.62749 2.16327 -1.23684
 724 1 8.79352 10.5236 1.01069
 725 1 9.13274 4.04901 8.13626
 726 1 -7.43182 10.0518 -0.132725
 727 1 7.84707 7.97644 4.96678
 728 1 2.83999 1.73484 -5.56943
 729 1 10.5828 -2.01654 -7.39123
 730 1 -6.24846 -1.27083 -9.66632
 731 1 -10.1316 7.49049 0.744711
 732 1 -4.69957 7.21693 -0.880562
 733 1 8.2262 1.91562 -6.25499
 734 1 -6.72483 -8.5014 3.81238
 735 1 -7.52907 10.2845 1.33418
 736 1 8.25341 9.59329 -10.2095
 737 1 7.79204 -0.331292 3.53257
 738 1 10.6755 6.98257 -0.845247
 739 1 7.37966 -7.49707 -6.1699
 740 1 10.1854 0.700062 4.92652
 741 1 5.47518 5.5743 -2.56825
 742 1 7.22307 3.58711 -7.38327
 743 1 -8.04019 -8.15383 5.43152
 744 1 0.317147 -6.66532 -5.68679
 745 1 -2.98191 -5.04069 9.86739
 746 1 -1.36012 -0.616321 0.937036
 747 1 -8.05465 -6.0547 -2.3091
 748 1 -6.69982 2.33953 -9.73417
 749 1 -4.04091 -3.16498 -7.97652
 750 1 5.32637 -7.41583 -9.17887
 751 1 -0.947862 6.35311 10.6246
 752 1 5.90697 -7.0883 1.30372
 753 1 9.81158 8.75737 -3.44451
 754 1 -4.12039 -7.52495 -0.754984
 755 1 -1.88096 2.01829 -7.78095
 756 1 0.267466 1.30281 8.03968
 757 1 -9.80743 10.5002 -8.29964
 758 1 0.36963 3.86957 4.79743
 759 1 -8.36192 1.53585 4.51235
 760 1 -5.69821 8.26682 7.20952
 761 1 -0.282954 5.92081 -6.36612
 762 1 0.161881 7.62121 5.44451
 763 1 -5.34844 -5.20777 7.91985
 764 1 -6.59402 -6.41017 -1.07337
 765 1 7.10199 5.97207 6.58413
 766 1 -4.76023 1.15226 -2.12357
 767 1 1.08354 9.99074 10.5551
 768 1 -2.15724 -1.67802 -7.76294
 769 1 -1.05572 10.9199 4.57228
 770 1 4.19846 1.75692 -5.86887
 771 1 5.25563 4.73703 7.04581
 772 1 -5.81023 -0.034565 9.56053
 773 1 -9.70071 -10.4916 -5.74276
 774 1 3.89905 5.36352 9.2745
 775 1 8.76836 -1.78261 -8.74924
 776 1 0.431691 1.98078 5.84
 777 1 -0.751819 -3.91381 -4.70994
 778 1 -11.1368 9.6717 6.39872
 779 1 4.78232 3.62361 8.52987
 780 1 7.58763 4.50198 7.11974
 781 1 -2.43838 -1.31907 -6.97044
 782 1 5.17171 2.99187 8.03802
 783 1 5.38787 -4.45125 -0.566823
 784 1 -1.60901 6.09421 -5.59
 785 1 2.85661 -8.4512 -3.21824
 786 1 7.79974 4.16265 -4.106
 787 1 -7.46712 3.33593 6.9687
 788 1 4.97655 6.39899 0.0160128
 789 1 -5.27506 7.58071 -1.96481
 790 1 9.42151 -9.03415 -3.91763
 791 1 -10.3144 -3.03219 8.23749
 792 1 -5.24846 -6.62045 1.12034
 793 1 2.50133 2.62885 2.90502
 794 1 1.017 -4.97996 4.29194
 795 1 -1.60213 9.2201 8.11819
 796 1 1.65894 -3.35607 -5.89581
 797 1 -9.27648 8.55176 6.63878
 798 1 7.8502 -2.64649 3.25678
 799 1 9.42955 7.19471 7.01514
 800 1 -4.22939 8.70188 6.07915
 801 1 -5.40753 9.3104 -5.04078
 802 1 4.65434 -10.6213 -9.65839
 803 1 -7.04445 -9.50432 -5.27133
 804 1 4.529 -2.23412 -9.21716
 805 1 6.39089 6.2993 0.373644
 806 1 1.08391 -4.86419 -4.92247
 807 1 -2.24218 3.95263 -0.795277
 808 1 -8.28304 -2.12235 10.659
 809 1 -2.39009 -3.06712 9.14209
 810 1 -9.46497 -10.7438 2.76152
 811 1 -2.08749 -6.6431 10.4023
 812 1 -7.07915 10.7629 -9.49881
 813 1 4.69587 4.51282 4.28755
 814 1 -6.37114 7.44586 5.39931
 815 1 0.0641574 -9.95813 9.23052
 816 1 -1.68493 -3.20122 -1.10501
 817 1 -3.60732 7.02073 1.839
 818 1 0.0639734 -3.4291 3.36851
 819 1 6.93677 9.87978 -0.961236
 820 1 -1.47741 -1.41682 -7.22483
 821 1 -3.29256 -8.65919 7.4872
 822 1 1.32029 -6.69049 6.14659
 823 1 7.27164 -9.34742 5.50565
 824 1 -9.41163 -9.42311 6.37824
 825 1 -2.58746 -5.88033 2.50561
 826 1 -10.7867 0.315936 10.0461
 827 1 -8.94741 0.525419 10.7182
 828 1 -3.03961 10.716 -5.16923
 829 1 3.08952 1.1942 -2.31368
 830 1 -1.5446 -5.69232 7.93151
 831 1 -7.92096 8.879 -9.91089
 832 1 6.65875 -9.75316 -6.4854
 833 1 -3.14292 -1.95977 -1.66182
 834 1 -3.77641 7.50322 0.740076
 835 1 9.53441 -6.34204 5.1634
 836 1 -4.86725 -8.88146 8.77968
 837 1 -2.73684 -8.99039 2.29545
 838 1 -0.867143 0.737353 7.18327
 839 1 -1.28871 3.94716 -2.67568
 840 1 -7.95146 -7.73285 9.32812
 841 1 8.06618 11.1098 0.220653
 842 1 -8.00533 -6.9577 6.2835
 843 1 -6.34372 5.24176 -2.70386
 844 1 -10.8211 4.46608 -4.85937
 845 1 6.70344 9.32503 -1.36738
 846 1 -1.57592 -8.81341 -4.80943
 847 1 -9.28167 -8.86777 9.89376
 848 1 5.46282 6.56662 2.03771
 849 1 -10.6908 -9.64024 -3.09602
 850 1 -6.493 -4.16299 -10.1701
 851 1 -7.98759 4.93981 8.38533
 852 1 8.36196 -3.76568 10.6701
 853 1 -1.5767 7.20765 4.94227
 854 1 -2.78037 2.54115 -6.97662
 855 1 9.32063 9.57023 1.84547
 856 1 7.29534 4.96791 -7.56921
 857 1 -7.83666 -7.55166 -4.24697
 858 1 10.7839 -7.43564 -3.8109
 859 1 -2.49685 1.85862 1.43211
 860 1 11.0458 3.59563 0.75244
 861 1 -8.94798 -10.9364 2.27599
 862 1 2.67958 0.884885 -8.05716
 863 1 2.18096 -3.66327 2.4274
 864 1 0.346421 -4.48182 1.06326
 865 1 0.982139 -8.82877 -6.32391
 866 1 1.14897 -9.18713 6.64701
 867 1 -1.85569 6.32524 -7.57272
 868 1 -4.55227 5.76772 -5.8477
 869 1 -0.0191205 6.34786 -0.27814
 870 1 6.51439 -2.57466 6.35897
 871 1 -2.10485 7.74076 6.6743
 872 1 -3.48376 -4.63021 -7.96467
 873 1 -10.3605 3.06314 -10.6501
 874 1 3.53674 -3.92718 4.88838
 875 1 -6.54604 3.73062 1.24754
 876 1 -2.76523 -1.6653 -3.09764
 877 1 7.31946 7.67187 5.73235
 878 1 -4.40492 9.65921 1.81526
 879 1 6.20177 -10.0767 7.91839
 880 1 -3.37842 8.78752 2.14794
 881 1 -0.158459 -7.72401 8.0629
 882 1 3.13798 4.02446 4.40342
 883 1 8.50506 7.61142 -10.4587
 884 1 -10.0841 -4.58284 -0.646927
 885 1 1.62413 7.34209 7.68851
 886 1 -3.80851 5.58893 -0.100218
 887 1 9.97615 8.03226 10.3844
 888 1 5.4846 1.84038 -2.85077
 889 1 -7.28948 9.33437 8.03215
 890 1 8.46061 -6.25457 -2.85471
 891 1 2.45298 -7.82931 -2.65686
 892 1 1.59435 2.80132 3.63569
 893 1 -7.20031 10.6029 -3.08706
 894 1 -5.54053 -8.67609 3.9765
 895 1 -3.891 2.87587 -5.70679
 896 1 -8.92007 -6.63769 -10.583
 897 1 -8.94477 4.94458 -7.80541
 898 1 2.35915 1.25122 0.507992
 899 1 -2.54744 5.00306 -4.12997
 900 1 -9.922 -3.38907 4.43675
 901 1 -1.61566 1.73926 8.07702
 902 1 -8.75222 -2.32042 -0.935741
 903 1 -3.43536 3.64459 -8.95637
 904 1 2.35517 1.74298 1.2953
 905 1 8.72838 -10.2911 -10.3709
 906 1 4.78727 5.56544 0.212758
 907 1 -1.27437 -9.04431 8.69822
 908 1 7.18709 6.71383 -7.58822
 909 1 10.2981 9.72986 -9.81179
 910 1 0.486117 -2.5504 3.23142
 911 1 7.09309 -5.20919 7.446
 912 1 2.55396 -1.78106 -9.49872
 913 1 -8.306 4.49144 2.69456
 914 1 -1.13341 3.69082 -10.109
 915 1 5.42133 -10.5673 -3.97238
 916 1 -8.90329 -0.688378 9.88801
 917 1 6.72152 9.55574 -2.77936
 918 1 4.37503 -9.17003 2.54429
 919 1 -6.0827 -1.47193 -1.35822
 920 1 9.84516 1.69121 -0.697735
 921 1 0.72612 2.693 1.6817
 922 1 10.8003 6.98854 -2.71498