ITEM: TIMESTEP
0
ITEM: NUMBER OF ATOMS
6912
ITEM: BOX BOUNDS pp pp pp
-1.1022900000000000e+01 1.1061199999999999e+01
-1.1085800000000001e+01 1.0998300000000000e+01
-1.1162500000000000e+01 1.0921600000000000e+01
ITEM: ATOMS id type c_myBond[1] c_myBond[2] c_myBond[3] c_myBond[4] c_myBond[5] c_myBond[6] c_myBond[7] c_myBond[8] c_myBond[9] c_myBond[10] c_myBond[11] c_myBond[12] c_myBond[13] c_myBond[14] c_myBond[15] c_myBond[16] c_myBond[17] c_myBond[18] c_myBond[19] c_myBond[20] c_myBond[21] c_myBond[22] c_myBond[23] c_myBond[24] c_myBond[25] c_myBond[26] c_myBond[27] 
1 1 0.0930359 -0.285073 0.298937 0.31145 0.20369 -0.0363282 0.0572686 0.0143445 -0.223814 -0.299126 0.0724052 -0.054998 0.00838216 0.276289 0 0.054998 0.00838216 -0.299126 -0.0724052 -0.0143445 -0.223814 -0.0363282 -0.0572686 -0.31145 0.20369 -0.285073 -0.298937 
2 1 0.121196 -0.120622 0.129395 -0.309191 -0.083149 -0.0579662 0.234395 0.105413 0.0943899 0.154903 -0.367462 0.0259438 -0.354677 -0.0689942 0 -0.0259438 -0.354677 0.154903 0.367462 -0.105413 0.0943899 -0.0579662 -0.234395 0.309191 -0.083149 -0.120622 -0.129395 
3 1 0.122447 0.0449925 0.182322 -0.252736 -0.230686 0.271752 0.0707088 0.185026 0.391845 -0.122307 0.107776 0.170777 -0.146749 -0.0865148 0 -0.170777 -0.146749 -0.122307 -0.107776 -0.185026 0.391845 0.271752 -0.0707088 0.252736 -0.230686 0.0449925 -0.182322 
4 1 0.129227 0.0581174 0.291224 0.0919514 -0.238691 0.175139 0.0653579 0.256499 0.0468222 -0.24748 0.110437 0.137681 0.350576 0.23728 0 -0.137681 0.350576 -0.24748 -0.110437 -0.256499 0.0468222 0.175139 -0.0653579 -0.0919514 -0.238691 0.0581174 -0.291224 
5 1 0.12542 0.449215 0.107379 0.0475841 0.0055972 -0.116962 0.0407206 -0.0667662 0.342981 -0.0188779 0.273381 -0.116294 0.107409 0.30592 0 0.116294 0.107409 -0.0188779 -0.273381 0.0667662 0.342981 -0.116962 -0.0407206 -0.0475841 0.0055972 0.449215 -0.107379 
6 1 0.0944896 -0.127863 -0.0386396 0.0593016 -0.527193 -0.107568 -0.093516 0.135562 0.0909097 -0.00748228 -0.122635 -0.345752 -0.111137 -0.116267 0 0.345752 -0.111137 -0.00748228 0.122635 -0.135562 0.0909097 -0.107568 0.093516 -0.0593016 -0.527193 -0.127863 0.0386396 
7 1 0.0965971 -0.0256807 -0.188515 0.177565 -0.115999 -0.202172 0.193628 -0.0852575 -0.251464 -0.158241 0.273323 -0.0419065 0.101716 -0.562319 0 0.0419065 0.101716 -0.158241 -0.273323 0.0852575 -0.251464 -0.202172 -0.193628 -0.177565 -0.115999 -0.0256807 0.188515 
8 1 0.107734 -0.207381 -0.131986 0.0673902 0.00453207 -0.00801237 -0.0859641 0.116342 -0.233718 -0.0393088 -0.133949 0.337118 0.374905 0.414024 0 -0.337118 0.374905 -0.0393088 0.133949 -0.116342 -0.233718 -0.00801237 0.0859641 -0.0673902 0.00453207 -0.207381 0.131986 
9 1 0.104254 0.0889625 -0.343362 -0.0446953 -0.177631 0.229784 -0.342963 -0.157417 0.204597 0.0796984 0.271988 -0.0320891 0.118177 0.128441 0 0.0320891 0.118177 0.0796984 -0.271988 0.157417 0.204597 0.229784 0.342963 0.0446953 -0.177631 0.0889625 0.343362 
10 1 0.0922243 0.253423 -0.207032 0.14348 -0.0248622 -0.273799 -0.0845654 0.192521 -0.0550063 0.150767 -0.0306752 -0.160054 -0.0808665 -0.622373 0 0.160054 -0.0808665 0.150767 0.0306752 -0.192521 -0.0550063 -0.273799 0.0845654 -0.14348 -0.0248622 0.253423 0.207032 
11 1 0.10051 -0.0415321 0.150424 -0.0890364 0.0629498 0.06261 0.0145971 0.421822 0.112402 -0.471093 0.169193 -0.0808156 -0.0142297 -0.153416 0 0.0808156 -0.0142297 -0.471093 -0.169193 -0.421822 0.112402 0.06261 -0.0145971 0.0890364 0.0629498 -0.0415321 -0.150424 
12 1 0.121798 0.18252 0.194678 -0.261156 -0.287387 -0.268638 -0.302523 -0.0885756 0.0514181 0.101391 -0.101016 0.0612163 0.0307232 0.396588 0 -0.0612163 0.0307232 0.101391 0.101016 0.0885756 0.0514181 -0.268638 0.302523 0.261156 -0.287387 0.18252 -0.194678 
13 1 0.116667 0.0317607 0.0499188 -0.0963622 -0.0015096 0.224505 -0.375317 0.281938 0.189123 0.264202 -0.215259 0.194848 0.111933 -0.167661 0 -0.194848 0.111933 0.264202 0.215259 -0.281938 0.189123 0.224505 0.375317 0.0963622 -0.0015096 0.0317607 -0.0499188 
14 1 0.119548 0.00963366 -0.177351 0.184081 -0.303455 0.108264 0.343397 -0.0301752 0.0759609 -0.0592582 -0.300254 -0.0125272 0.309423 -0.182187 0 0.0125272 0.309423 -0.0592582 0.300254 0.0301752 0.0759609 0.108264 -0.343397 -0.184081 -0.303455 0.00963366 0.177351 
15 1 0.118903 -0.0616436 -0.166728 -0.0143639 0.269562 0.113311 -0.0455756 0.181853 0.190574 -0.111156 0.18534 -0.399703 -0.312515 0.119099 0 0.399703 -0.312515 -0.111156 -0.18534 -0.181853 0.190574 0.113311 0.0455756 0.0143639 0.269562 -0.0616436 0.166728 
16 1 0.155381 0.154664 0.319398 -0.0307533 0.341394 0.138005 0.00825439 -0.174344 0.213776 -0.0459313 -0.387748 -0.0820293 -0.0084217 -0.0648238 0 0.0820293 -0.0084217 -0.0459313 0.387748 0.174344 0.213776 0.138005 -0.00825439 0.0307533 0.341394 0.154664 -0.319398 
17 1 0.128824 0.0295292 -0.300809 -0.207901 0.170965 0.033194 0.209556 0.283822 0.360633 -0.247893 -0.0310571 0.0163153 0.0509946 0.17482 0 -0.0163153 0.0509946 -0.247893 0.0310571 -0.283822 0.360633 0.033194 -0.209556 0.207901 0.170965 0.0295292 0.300809 
18 1 0.107969 -0.0147236 0.0197891 -0.0650219 0.0703789 -0.188843 -0.104922 0.477964 -0.26104 0.200425 -0.16224 -0.0371325 -0.275878 0.0770592 0 0.0371325 -0.275878 0.200425 0.16224 -0.477964 -0.26104 -0.188843 0.104922 0.0650219 0.0703789 -0.0147236 -0.0197891 
19 1 0.124465 -0.272399 -0.120742 -0.389254 -0.0115322 -0.124133 -0.177239 0.0504788 -0.0731691 0.266923 0.274439 0.0413799 -0.00784931 0.336173 0 -0.0413799 -0.00784931 0.266923 -0.274439 -0.0504788 -0.0731691 -0.124133 0.177239 0.389254 -0.0115322 -0.272399 0.120742 
20 1 0.098592 0.0228231 0.0430285 -0.158784 0.0145975 -0.135391 0.0797156 -0.192837 0.0416891 0.364441 -0.422414 -0.0233518 0.29379 0.144806 0 0.0233518 0.29379 0.364441 0.422414 0.192837 0.0416891 -0.135391 -0.0797156 0.158784 0.0145975 0.0228231 -0.0430285 
21 1 0.119014 0.203712 0.0169674 -0.0428569 -0.31646 0.310473 0.262526 -0.113333 -0.376293 -0.0382869 -0.0550916 -0.169338 0.0340467 0.0654309 0 0.169338 0.0340467 -0.0382869 0.0550916 0.113333 -0.376293 0.310473 -0.262526 0.0428569 -0.31646 0.203712 -0.0169674 
22 1 0.126762 0.0968903 0.0836909 0.105401 0.0101806 0.121363 0.0653208 -0.250817 -0.0221684 0.231647 -0.350363 0.301786 0.3058 0.240815 0 -0.301786 0.3058 0.231647 0.350363 0.250817 -0.0221684 0.121363 -0.0653208 -0.105401 0.0101806 0.0968903 -0.0836909 
23 1 0.110525 0.0699223 0.208154 0.0160418 -0.00424793 -0.127993 0.0171418 0.245875 -0.00489085 0.187135 -0.0641618 0.506314 0.279744 -0.0347994 0 -0.506314 0.279744 0.187135 0.0641618 -0.245875 -0.00489085 -0.127993 -0.0171418 -0.0160418 -0.00424793 0.0699223 -0.208154 
24 1 0.100262 -0.231794 0.39001 -0.320131 0.0226063 0.124064 0.058671 0.0270232 0.136023 0.242151 -0.0635846 0.228844 -0.187655 -0.07535 0 -0.228844 -0.187655 0.242151 0.0635846 -0.0270232 0.136023 0.124064 -0.058671 0.320131 0.0226063 -0.231794 -0.39001 
25 1 0.114714 -0.219922 0.151348 0.129718 -0.0470654 0.2533 0.0249418 -0.0901143 0.0654584 0.0509993 0.0165659 -0.458556 -0.236926 0.35557 0 0.458556 -0.236926 0.0509993 -0.0165659 0.0901143 0.0654584 0.2533 -0.0249418 -0.129718 -0.0470654 -0.219922 -0.151348 
26 1 0.085514 0.231264 -0.238065 -0.0569697 0.120826 -0.169223 0.375719 0.0222678 0.0678554 0.0660825 -0.0180096 0.142437 0.295491 0.411828 0 -0.142437 0.295491 0.0660825 0.0180096 -0.0222678 0.0678554 -0.169223 -0.375719 0.0569697 0.120826 0.231264 0.238065 
27 1 0.125778 -0.183306 -0.31586 -0.0122677 -0.00995197 -0.0356086 0.178058 0.205387 0.199782 -0.063039 -0.250332 0.390622 -0.161521 -0.109529 0 -0.390622 -0.161521 -0.063039 0.250332 -0.205387 0.199782 -0.0356086 -0.178058 0.0122677 -0.00995197 -0.183306 0.31586 
28 1 0.0832407 -0.172123 0.0937455 0.00295523 -0.00693635 -0.32628 -0.231792 -0.212534 -0.0227752 0.449637 -0.0594776 -0.107811 0.0145482 -0.276067 0 0.107811 0.0145482 0.449637 0.0594776 0.212534 -0.0227752 -0.32628 0.231792 -0.00295523 -0.00693635 -0.172123 -0.0937455 
29 1 0.104163 -0.0927629 0.16499 0.0664085 0.129166 -0.0250526 -0.424527 -0.0796178 0.197371 0.205085 -0.0716488 -0.117858 0.143904 0.519889 0 0.117858 0.143904 0.205085 0.0716488 0.0796178 0.197371 -0.0250526 0.424527 -0.0664085 0.129166 -0.0927629 -0.16499 
30 1 0.107421 0.129794 0.0533659 0.371515 -0.00350994 -0.109254 0.0377072 0.279811 0.241592 0.0228004 -0.214033 0.208682 0.318989 0.0351795 0 -0.208682 0.318989 0.0228004 0.214033 -0.279811 0.241592 -0.109254 -0.0377072 -0.371515 -0.00350994 0.129794 -0.0533659 
31 1 0.114861 -0.0896023 0.0549666 -0.360852 0.404149 0.193246 0.172617 0.0555441 0.185056 0.00134087 -0.150332 -0.193752 0.0191357 -0.246657 0 0.193752 0.0191357 0.00134087 0.150332 -0.0555441 0.185056 0.193246 -0.172617 0.360852 0.404149 -0.0896023 -0.0549666 
32 1 0.102589 -0.0652462 0.364551 0.213862 -0.331852 -0.165942 -0.00104874 0.0420596 0.335356 0.0729195 0.0738149 0.125555 -0.167389 0.146037 0 -0.125555 -0.167389 0.0729195 -0.0738149 -0.0420596 0.335356 -0.165942 0.00104874 -0.213862 -0.331852 -0.0652462 -0.364551 
33 1 0.109394 -0.1215 -0.109887 0.0147497 0.437571 -0.00981821 -0.000252755 0.120347 -0.220738 -0.0823994 0.0070101 -0.395387 0.034686 -0.32802 0 0.395387 0.034686 -0.0823994 -0.0070101 -0.120347 -0.220738 -0.00981821 0.000252755 -0.0147497 0.437571 -0.1215 0.109887 
34 1 0.0863045 -0.297244 -0.177107 -0.0380292 0.271911 -0.0554192 -0.0448841 0.0319462 0.0816637 -0.393549 0.0807786 -0.209904 0.283142 -0.113903 0 0.209904 0.283142 -0.393549 -0.0807786 -0.0319462 0.0816637 -0.0554192 0.0448841 0.0380292 0.271911 -0.297244 0.177107 
35 1 0.119214 0.246715 0.293222 0.0589784 0.0422305 0.356597 0.0148633 0.126871 0.00091126 -0.131035 0.139585 0.209708 0.317626 0.213978 0 -0.209708 0.317626 -0.131035 -0.139585 -0.126871 0.00091126 0.356597 -0.0148633 -0.0589784 0.0422305 0.246715 -0.293222 
36 1 0.115292 -0.23623 0.34609 -0.294568 -0.105519 -0.00115835 0.0164809 -0.22554 -0.0658651 -0.241849 -0.2152 0.183965 0.163724 -0.105656 0 -0.183965 0.163724 -0.241849 0.2152 0.22554 -0.0658651 -0.00115835 -0.0164809 0.294568 -0.105519 -0.23623 -0.34609 
37 1 0.142178 0.0406038 -0.377086 -0.0289554 -0.164931 0.0266682 -0.120014 0.117056 -0.323667 -0.138246 0.361202 0.116713 0.12864 0.171994 0 -0.116713 0.12864 -0.138246 -0.361202 -0.117056 -0.323667 0.0266682 0.120014 0.0289554 -0.164931 0.0406038 0.377086 
38 1 0.111722 0.032528 0.00106032 -0.00897095 -0.0130245 -0.190176 -0.312471 0.23583 -0.468049 -0.265079 0.014406 0.100543 -0.0953517 0.0323782 0 -0.100543 -0.0953517 -0.265079 -0.014406 -0.23583 -0.468049 -0.190176 0.312471 0.00897095 -0.0130245 0.032528 -0.00106032 
39 1 0.0957423 0.0222142 -0.217841 -0.0950108 0.0185301 0.0270563 0.0687279 0.403571 -0.261601 0.367352 -0.0325701 -0.0720248 -0.0668681 0.347143 0 0.0720248 -0.0668681 0.367352 0.0325701 -0.403571 -0.261601 0.0270563 -0.0687279 0.0950108 0.0185301 0.0222142 0.217841 
40 1 0.11497 -0.104123 -0.139583 -0.0877745 -0.0235328 -0.488817 -0.0576535 -0.099749 0.169535 -0.0981151 -0.168326 -0.288406 0.0972369 -0.315802 0 0.288406 0.0972369 -0.0981151 0.168326 0.099749 0.169535 -0.488817 0.0576535 0.0877745 -0.0235328 -0.104123 0.139583 
41 1 0.104699 0.0994146 -0.248708 -0.258592 -0.211361 -0.0251673 -0.137698 -0.28035 0.0770924 0.196328 -0.349755 0.124614 0.0158165 -0.268076 0 -0.124614 0.0158165 0.196328 0.349755 0.28035 0.0770924 -0.0251673 0.137698 0.258592 -0.211361 0.0994146 0.248708 
42 1 0.115557 -0.130885 0.0644834 0.275468 0.0992582 0.169907 -0.308328 -0.117791 0.216462 -0.332762 -0.0573865 0.0359407 0.245028 0.256736 0 -0.0359407 0.245028 -0.332762 0.0573865 0.117791 0.216462 0.169907 0.308328 -0.275468 0.0992582 -0.130885 -0.0644834 
43 1 0.104592 0.172999 0.358834 -0.150015 0.121103 -0.131024 -0.440438 -0.140495 0.152414 -0.0879643 0.101065 0.0400581 0.0909088 0.210695 0 -0.0400581 0.0909088 -0.0879643 -0.101065 0.140495 0.152414 -0.131024 0.440438 0.150015 0.121103 0.172999 -0.358834 
44 1 0.140253 0.316007 0.0180425 -0.289118 -0.0986738 -0.28377 -0.0906523 0.0337541 0.383618 -0.131382 0.222355 0.0258075 -0.045226 -0.00761216 0 -0.0258075 -0.045226 -0.131382 -0.222355 -0.0337541 0.383618 -0.28377 0.0906523 0.289118 -0.0986738 0.316007 -0.0180425 
45 1 0.134216 0.111374 -0.240836 0.139806 0.230039 -0.187181 0.130325 0.00416216 0.214036 0.138819 0.291619 -0.0739241 -0.0615857 -0.539833 0 0.0739241 -0.0615857 0.138819 -0.291619 -0.00416216 0.214036 -0.187181 -0.130325 -0.139806 0.230039 0.111374 0.240836 
46 1 0.11143 0.290615 0.396819 0.140744 0.163879 -0.0436459 0.218434 0.12588 0.0627171 -0.193023 -0.00231735 -0.0390185 0.317404 0.0704864 0 0.0390185 0.317404 -0.193023 0.00231735 -0.12588 0.0627171 -0.0436459 -0.218434 -0.140744 0.163879 0.290615 -0.396819 
47 1 0.0931135 -0.149489 0.091693 0.101036 -0.284235 -0.23741 0.0812389 0.238284 0.175355 -0.212221 -0.0309428 0.0599192 0.224433 0.505568 0 -0.0599192 0.224433 -0.212221 0.0309428 -0.238284 0.175355 -0.23741 -0.0812389 -0.101036 -0.284235 -0.149489 -0.091693 
48 1 0.143158 -0.168365 0.24412 0.0926443 0.105342 0.0399108 0.0545624 -0.161908 -0.125959 0.431557 0.35215 -0.162344 -0.0924359 0.034007 0 0.162344 -0.0924359 0.431557 -0.35215 0.161908 -0.125959 0.0399108 -0.0545624 -0.0926443 0.105342 -0.168365 -0.24412 
49 1 0.0950332 0.273091 0.219667 -0.0748936 0.0862768 -0.371211 -0.217067 -0.014394 0.0999607 -0.143992 -0.144134 0.126682 -0.24981 0.313172 0 -0.126682 -0.24981 -0.143992 0.144134 0.014394 0.0999607 -0.371211 0.217067 0.0748936 0.0862768 0.273091 -0.219667 
50 1 0.127537 -0.205705 0.107855 -0.163995 -0.29126 0.0317431 0.19934 0.300293 0.0182869 0.136808 0.0270054 -0.352425 0.0353499 -0.341094 0 0.352425 0.0353499 0.136808 -0.0270054 -0.300293 0.0182869 0.0317431 -0.19934 0.163995 -0.29126 -0.205705 -0.107855 
51 1 0.14839 -0.0339994 0.14595 -0.252474 -0.175702 0.0521162 0.300743 -0.122126 -0.204393 -0.0197018 0.236529 -0.137549 0.0134976 -0.561495 0 0.137549 0.0134976 -0.0197018 -0.236529 0.122126 -0.204393 0.0521162 -0.300743 0.252474 -0.175702 -0.0339994 -0.14595 
52 1 0.109917 -0.217658 -0.166108 0.273517 -0.316432 -0.143208 0.219722 0.153326 0.0681519 0.226232 0.139742 -0.157758 0.198659 -0.190212 0 0.157758 0.198659 0.226232 -0.139742 -0.153326 0.0681519 -0.143208 -0.219722 -0.273517 -0.316432 -0.217658 0.166108 
53 1 0.143558 -0.178276 0.138382 0.0357418 -0.0809739 -0.123456 -0.0180665 0.278186 -0.222007 -0.139898 0.13648 -0.298751 0.378815 0.236815 0 0.298751 0.378815 -0.139898 -0.13648 -0.278186 -0.222007 -0.123456 0.0180665 -0.0357418 -0.0809739 -0.178276 -0.138382 
54 1 0.131148 -0.03776 0.0124178 0.00403467 0.0153365 0.330949 -0.0206044 0.0411481 -0.140376 -0.0490868 0.276078 -0.26585 -0.0222947 -0.658811 0 0.26585 -0.0222947 -0.0490868 -0.276078 -0.0411481 -0.140376 0.330949 0.0206044 -0.00403467 0.0153365 -0.03776 -0.0124178 
55 1 0.124585 0.0593968 -0.0464586 -0.244793 0.0852524 0.0683839 -0.00441271 -0.523706 0.195581 -0.269874 0.153838 -0.0627091 0.0913291 0.0476465 0 0.0627091 0.0913291 -0.269874 -0.153838 0.523706 0.195581 0.0683839 0.00441271 0.244793 0.0852524 0.0593968 0.0464586 
56 1 0.137278 -0.046519 0.310661 0.143949 0.268013 -0.235246 0.0860075 0.286862 0.311124 0.17375 0.0512155 -0.0953761 -0.156521 0.032858 0 0.0953761 -0.156521 0.17375 -0.0512155 -0.286862 0.311124 -0.235246 -0.0860075 -0.143949 0.268013 -0.046519 -0.310661 
57 1 0.0885949 0.040962 -0.0984601 -0.0721335 0.126583 0.0193134 0.537701 0.0344666 -0.0725539 0.253558 0.0838508 -0.0694086 0.259296 -0.236979 0 0.0694086 0.259296 0.253558 -0.0838508 -0.0344666 -0.0725539 0.0193134 -0.537701 0.0721335 0.126583 0.040962 0.0984601 
58 1 0.117378 -0.0110136 -0.073007 -0.49579 -0.0848701 0.0286587 0.118615 -0.0805955 -0.0461371 0.138935 0.27941 0.266957 0.0224236 -0.312669 0 -0.266957 0.0224236 0.138935 -0.27941 0.0805955 -0.0461371 0.0286587 -0.118615 0.49579 -0.0848701 -0.0110136 0.073007 
59 1 0.105685 0.327935 0.0786707 0.114507 -0.00422248 -0.0159005 0.141198 -0.00683597 -0.21442 -0.457275 -0.00535133 -0.0913198 0.170222 -0.347804 0 0.0913198 0.170222 -0.457275 0.00535133 0.00683597 -0.21442 -0.0159005 -0.141198 -0.114507 -0.00422248 0.327935 -0.0786707 
60 1 0.123539 0.0165416 -0.414456 0.291094 -0.0255464 0.0292644 0.249673 -0.235804 -0.122998 0.206263 -0.216244 -0.104883 0.027014 -0.123308 0 0.104883 0.027014 0.206263 0.216244 0.235804 -0.122998 0.0292644 -0.249673 -0.291094 -0.0255464 0.0165416 0.414456 
61 1 0.105069 -0.343728 -0.256654 0.0772154 -0.237718 0.211299 -0.274658 -0.168875 -0.0760576 0.120352 -0.179211 -0.14935 -0.013495 0.245077 0 0.14935 -0.013495 0.120352 0.179211 0.168875 -0.0760576 0.211299 0.274658 -0.0772154 -0.237718 -0.343728 0.256654 
62 1 0.0897197 0.01933 -0.0257717 0.00469379 0.369147 0.153707 -0.038471 0.215023 0.000287563 -0.102964 0.479738 0.139347 0.100051 0.205683 0 -0.139347 0.100051 -0.102964 -0.479738 -0.215023 0.000287563 0.153707 0.038471 -0.00469379 0.369147 0.01933 0.0257717 
63 1 0.141894 -0.106378 -0.186698 -0.0789762 -0.357545 -0.178942 -0.122158 0.192303 0.130423 -0.162418 0.250482 -0.216334 -0.144602 -0.352101 0 0.216334 -0.144602 -0.162418 -0.250482 -0.192303 0.130423 -0.178942 0.122158 0.0789762 -0.357545 -0.106378 0.186698 
64 1 0.116438 0.0984131 0.107962 0.269919 0.218269 -0.241453 -0.0300745 0.10128 0.0687375 -0.291733 -0.268436 -0.0308469 -0.296516 0.275448 0 0.0308469 -0.296516 -0.291733 0.268436 -0.10128 0.0687375 -0.241453 0.0300745 -0.269919 0.218269 0.0984131 -0.107962 
65 1 0.0622069 0.0923927 0.236489 0.0285476 0.0312817 -0.260547 0.0137789 -0.0142086 -0.256293 0.359044 -0.272493 0.0416664 -0.296242 0.119334 0 -0.0416664 -0.296242 0.359044 0.272493 0.0142086 -0.256293 -0.260547 -0.0137789 -0.0285476 0.0312817 0.0923927 -0.236489 
66 1 0.112935 -0.0865352 0.158569 -0.244823 -0.30303 -0.0299371 0.0341482 -0.146757 -0.258023 -0.264466 0.250012 -0.110879 -0.283745 -0.018554 0 0.110879 -0.283745 -0.264466 -0.250012 0.146757 -0.258023 -0.0299371 -0.0341482 0.244823 -0.30303 -0.0865352 -0.158569 
67 1 0.0840572 0.12024 -0.175938 -0.228241 -0.0823808 0.12081 0.0331529 0.0884854 0.0935798 0.0724555 -0.456662 -0.317086 0.0467521 0.306291 0 0.317086 0.0467521 0.0724555 0.456662 -0.0884854 0.0935798 0.12081 -0.0331529 0.228241 -0.0823808 0.12024 0.175938 
68 1 0.133005 -0.211574 -0.0269144 0.354843 -0.102601 -0.196849 -0.312547 0.231377 0.194101 -0.0686268 0.240466 -0.141707 -0.0218896 0.121098 0 0.141707 -0.0218896 -0.0686268 -0.240466 -0.231377 0.194101 -0.196849 0.312547 -0.354843 -0.102601 -0.211574 0.0269144 
69 1 0.0899959 0.113031 0.0710382 0.111403 -0.205935 -0.389673 -0.145156 -0.149662 0.0858023 0.4251 0.0319158 -0.146516 0.10197 0.148915 0 0.146516 0.10197 0.4251 -0.0319158 0.149662 0.0858023 -0.389673 0.145156 -0.111403 -0.205935 0.113031 -0.0710382 
70 1 0.120094 0.150475 0.141983 0.358203 0.318814 -0.0717706 -0.121964 -0.222531 -0.229137 0.113196 -0.124507 0.052325 0.260945 -0.110001 0 -0.052325 0.260945 0.113196 0.124507 0.222531 -0.229137 -0.0717706 0.121964 -0.358203 0.318814 0.150475 -0.141983 
71 1 0.0917213 0.0187948 0.157823 -0.028981 0.0990386 -0.144617 -0.148449 -0.214271 -0.518958 0.0420974 -0.125361 0.285999 -0.013492 -0.11353 0 -0.285999 -0.013492 0.0420974 0.125361 0.214271 -0.518958 -0.144617 0.148449 0.028981 0.0990386 0.0187948 -0.157823 
72 1 0.126751 -0.0495779 0.024424 0.0468605 -0.0692602 0.238961 0.285773 -0.195809 0.220209 0.258067 0.156828 -0.123439 -0.208376 -0.478539 0 0.123439 -0.208376 0.258067 -0.156828 0.195809 0.220209 0.238961 -0.285773 -0.0468605 -0.0692602 -0.0495779 -0.024424 
73 1 0.102546 0.299758 -0.134105 0.271941 -0.231414 0.104571 0.113619 0.0168692 0.213221 -0.124094 -0.211845 -0.306058 0.117303 -0.233904 0 0.306058 0.117303 -0.124094 0.211845 -0.0168692 0.213221 0.104571 -0.113619 -0.271941 -0.231414 0.299758 0.134105 
74 1 0.121124 0.00579966 0.435246 0.148431 -0.0385258 -0.0563662 0.103341 -0.14865 0.341915 -0.0914551 -0.177123 -0.0454243 0.236716 0.269509 0 0.0454243 0.236716 -0.0914551 0.177123 0.14865 0.341915 -0.0563662 -0.103341 -0.148431 -0.0385258 0.00579966 -0.435246 
75 1 0.0911084 0.0772133 0.264087 0.104928 0.00202065 0.010489 -0.186102 0.0359971 -0.161882 0.513915 0.258903 0.020365 0.138567 -0.0237763 0 -0.020365 0.138567 0.513915 -0.258903 -0.0359971 -0.161882 0.010489 0.186102 -0.104928 0.00202065 0.0772133 -0.264087 
76 1 0.0774373 0.00584583 -0.257179 -0.299753 0.294866 0.0287045 -0.129874 -0.184611 0.0453125 -0.127923 0.0845126 -0.406435 0.0948331 0.104991 0 0.406435 0.0948331 -0.127923 -0.0845126 0.184611 0.0453125 0.0287045 0.129874 0.299753 0.294866 0.00584583 0.257179 
77 1 0.128415 0.193587 0.0900342 0.222004 0.333768 0.0336855 0.236527 -0.185086 0.059873 -0.223732 0.0995429 -0.237746 -0.127204 -0.363708 0 0.237746 -0.127204 -0.223732 -0.0995429 0.185086 0.059873 0.0336855 -0.236527 -0.222004 0.333768 0.193587 -0.0900342 
78 1 0.0848893 0.192626 0.298781 -0.160337 0.10763 -0.333328 -0.121792 0.00382781 0.100822 -0.172506 0.0683208 0.213413 0.280457 -0.288392 0 -0.213413 0.280457 -0.172506 -0.0683208 -0.00382781 0.100822 -0.333328 0.121792 0.160337 0.10763 0.192626 -0.298781 
79 1 0.0942676 0.215906 0.0564003 0.336861 0.178622 0.00893476 0.328175 -0.101938 -0.238623 -0.114128 0.0595842 0.0727645 -0.325727 0.0590555 0 -0.0727645 -0.325727 -0.114128 -0.0595842 0.101938 -0.238623 0.00893476 -0.328175 -0.336861 0.178622 0.215906 -0.0564003 
80 1 0.0958357 -0.256728 0.212163 0.200295 0.00390215 0.171762 -0.0793805 -0.37652 -0.0574068 0.217181 0.0681584 -0.0624565 -0.313316 0.168504 0 0.0624565 -0.313316 0.217181 -0.0681584 0.37652 -0.0574068 0.171762 0.0793805 -0.200295 0.00390215 -0.256728 -0.212163 
81 1 0.0891765 0.0494417 -0.017342 0.0601361 0.300421 -0.252889 0.267513 -0.288858 -0.0344452 -0.310178 0.0927648 0.252334 -0.109383 0.0747163 0 -0.252334 -0.109383 -0.310178 -0.0927648 0.288858 -0.0344452 -0.252889 -0.267513 -0.0601361 0.300421 0.0494417 0.017342 
82 1 0.154182 -0.0453739 -0.262407 0.246353 0.0231389 0.122419 -0.0649577 0.144567 -0.160766 0.180478 -0.00682906 0.226022 0.456683 -0.138877 0 -0.226022 0.456683 0.180478 0.00682906 -0.144567 -0.160766 0.122419 0.0649577 -0.246353 0.0231389 -0.0453739 0.262407 
83 1 0.114269 -0.124912 -0.0576455 0.388826 -0.219656 0.314196 0.109795 0.051899 0.158554 0.187323 0.0969997 0.0629209 -0.183063 -0.349465 0 -0.0629209 -0.183063 0.187323 -0.0969997 -0.051899 0.158554 0.314196 -0.109795 -0.388826 -0.219656 -0.124912 0.0576455 
84 1 0.0870521 -0.133706 0.180443 0.0822429 -0.137824 0.174423 0.33548 -0.115918 0.180621 -0.283596 0.0630497 -0.0562739 -0.290834 0.353891 0 0.0562739 -0.290834 -0.283596 -0.0630497 0.115918 0.180621 0.174423 -0.33548 -0.0822429 -0.137824 -0.133706 -0.180443 
85 1 0.100647 -0.334489 0.33124 -0.00496506 0.0949224 0.0433911 -0.400237 0.0100378 0.035642 0.198918 -0.142246 -0.171713 -0.0461357 -0.170309 0 0.171713 -0.0461357 0.198918 0.142246 -0.0100378 0.035642 0.0433911 0.400237 0.00496506 0.0949224 -0.334489 -0.33124 
86 1 0.109942 0.041188 -0.150341 0.0901432 -0.0525301 -0.339944 0.13038 0.517013 0.045235 -0.0432738 -0.172467 -0.124591 -0.0312358 -0.171991 0 0.124591 -0.0312358 -0.0432738 0.172467 -0.517013 0.045235 -0.339944 -0.13038 -0.0901432 -0.0525301 0.041188 0.150341 
87 1 0.0963427 -0.230579 -0.00513975 -0.010119 0.0170675 0.0487948 -0.206955 0.173095 0.251464 -0.12761 -0.434088 0.0908089 -0.282222 0.175463 0 -0.0908089 -0.282222 -0.12761 0.434088 -0.173095 0.251464 0.0487948 0.206955 0.010119 0.0170675 -0.230579 0.00513975 
88 1 0.110855 0.0850953 -0.146179 0.116171 -0.112678 -0.0652029 0.088008 -0.0212809 0.246078 0.28684 0.17224 0.0143381 0.239052 -0.637023 0 -0.0143381 0.239052 0.28684 -0.17224 0.0212809 0.246078 -0.0652029 -0.088008 -0.116171 -0.112678 0.0850953 0.146179 
89 1 0.10532 -0.154093 -0.10024 -0.158828 -0.16642 -0.193628 -0.232039 0.0695497 -0.101143 0.272725 -0.0486534 -0.340277 0.337363 -0.0327558 0 0.340277 0.337363 0.272725 0.0486534 -0.0695497 -0.101143 -0.193628 0.232039 0.158828 -0.16642 -0.154093 0.10024 
90 1 0.109225 -0.063348 0.436608 -0.231481 0.217081 -0.249866 -0.0480687 0.109159 0.0688884 0.132561 -0.19074 -0.195024 0.0141835 0.249235 0 0.195024 0.0141835 0.132561 0.19074 -0.109159 0.0688884 -0.249866 0.0480687 0.231481 0.217081 -0.063348 -0.436608 
91 1 0.106232 0.0473923 -0.0263021 -0.14914 -0.232509 0.343861 0.28518 0.204043 0.0010639 0.337551 -0.126686 -0.147845 -0.127043 0.152104 0 0.147845 -0.127043 0.337551 0.126686 -0.204043 0.0010639 0.343861 -0.28518 0.14914 -0.232509 0.0473923 0.0263021 
92 1 0.106508 0.148264 0.278136 -0.0997603 0.0418834 0.323128 0.105323 -0.0342639 0.0864185 0.00210668 0.417952 0.0747105 0.165872 -0.337702 0 -0.0747105 0.165872 0.00210668 -0.417952 0.0342639 0.0864185 0.323128 -0.105323 0.0997603 0.0418834 0.148264 -0.278136 
93 1 0.110418 -0.108216 0.199507 0.230579 -0.0951941 -0.100864 0.165326 0.17194 -0.0239868 0.161222 -0.397732 -0.0446844 0.219751 -0.410225 0 0.0446844 0.219751 0.161222 0.397732 -0.17194 -0.0239868 -0.100864 -0.165326 -0.230579 -0.0951941 -0.108216 -0.199507 
94 1 0.10549 -0.167987 0.365308 -0.0729028 -0.152871 0.174892 0.0890729 0.287336 -0.139916 -0.0298206 -0.359411 0.0620724 -0.182455 0.0596245 0 -0.0620724 -0.182455 -0.0298206 0.359411 -0.287336 -0.139916 0.174892 -0.0890729 0.0729028 -0.152871 -0.167987 -0.365308 
95 1 0.116198 -0.00362265 -0.124604 -0.0135834 0.0626008 0.0439102 0.382045 -0.137083 -0.193837 -0.133423 -0.0986318 0.0745408 0.302231 0.550776 0 -0.0745408 0.302231 -0.133423 0.0986318 0.137083 -0.193837 0.0439102 -0.382045 0.0135834 0.0626008 -0.00362265 0.124604 
96 1 0.104854 0.26316 0.249864 0.148263 0.0394216 -0.421588 -0.0321112 0.310074 -0.0838768 0.0322464 0.0324647 -0.125867 0.186818 -0.141366 0 0.125867 0.186818 0.0322464 -0.0324647 -0.310074 -0.0838768 -0.421588 0.0321112 -0.148263 0.0394216 0.26316 -0.249864 
97 1 0.0992034 0.162973 -0.192375 -0.0909277 -0.245253 -0.261897 0.0686936 -0.248149 0.155207 -0.0306981 0.0539067 -0.0855932 0.24053 -0.529169 0 0.0855932 0.24053 -0.0306981 -0.0539067 0.248149 0.155207 -0.261897 -0.0686936 0.0909277 -0.245253 0.162973 0.192375 
98 1 0.08339 0.273103 0.0296408 0.126828 -0.0469118 0.128982 -0.109456 -0.0114737 -0.303891 0.239037 -0.0377699 0.0265965 0.444971 0.236134 0 -0.0265965 0.444971 0.239037 0.0377699 0.0114737 -0.303891 0.128982 0.109456 -0.126828 -0.0469118 0.273103 -0.0296408 
99 1 0.0917803 0.16063 -0.102103 -0.16923 0.173728 0.0424232 0.322549 0.0845779 -0.191426 -0.329728 -0.324227 0.114903 0.0800772 0.209087 0 -0.114903 0.0800772 -0.329728 0.324227 -0.0845779 -0.191426 0.0424232 -0.322549 0.16923 0.173728 0.16063 0.102103 
100 1 0.0978675 0.0823383 0.0145514 0.0417221 -0.430844 0.128623 0.171176 -0.170708 -0.253912 -0.176587 0.349775 0.108457 0.00984798 0.0399689 0 -0.108457 0.00984798 -0.176587 -0.349775 0.170708 -0.253912 0.128623 -0.171176 -0.0417221 -0.430844 0.0823383 -0.0145514 
101 1 0.110838 -0.000530356 0.143269 0.470864 -0.0661062 0.0315977 -0.273764 -0.11045 -0.115372 0.295807 0.105653 0.0951813 0.0391574 0.292159 0 -0.0951813 0.0391574 0.295807 -0.105653 0.11045 -0.115372 0.0315977 0.273764 -0.470864 -0.0661062 -0.000530356 -0.143269 
102 1 0.1308 -0.053511 0.243499 0.338751 -0.194403 -0.227327 0.0649304 0.0976604 -0.208229 0.322116 0.0321848 0.0600085 -0.260261 0.0275307 0 -0.0600085 -0.260261 0.322116 -0.0321848 -0.0976604 -0.208229 -0.227327 -0.0649304 -0.338751 -0.194403 -0.053511 -0.243499 
103 1 0.088773 -0.0415705 -0.00733365 0.0170071 0.275706 0.00987327 0.0274405 -0.0367857 0.0937227 -0.388601 -0.0700538 -0.296997 -0.0201291 0.576882 0 0.296997 -0.0201291 -0.388601 0.0700538 0.0367857 0.0937227 0.00987327 -0.0274405 -0.0170071 0.275706 -0.0415705 0.00733365 
104 1 0.089321 0.249366 0.274907 0.0140211 0.376504 0.156818 0.245559 0.277862 -0.130457 -0.11826 0.155892 -0.00120987 -0.0418913 0.0475191 0 0.00120987 -0.0418913 -0.11826 -0.155892 -0.277862 -0.130457 0.156818 -0.245559 -0.0140211 0.376504 0.249366 -0.274907 
105 1 0.103547 0.0680043 -0.197192 0.000642388 -0.244018 0.427677 -0.137252 0.110717 -0.0385845 -0.163488 -0.187344 -0.045305 -0.334115 0.109014 0 0.045305 -0.334115 -0.163488 0.187344 -0.110717 -0.0385845 0.427677 0.137252 -0.000642388 -0.244018 0.0680043 0.197192 
106 1 0.0971347 0.267438 0.00799723 0.109156 -0.0595359 -0.36348 -0.0639396 -0.0715729 0.356786 -0.140434 0.0481375 0.234033 0.0846342 0.347435 0 -0.234033 0.0846342 -0.140434 -0.0481375 0.0715729 0.356786 -0.36348 0.0639396 -0.109156 -0.0595359 0.267438 -0.00799723 
107 1 0.104425 0.13442 -0.204172 -0.123111 -0.398515 0.154921 -0.0340667 -0.123515 0.249135 0.270453 0.13275 0.236308 -0.0567811 0.167072 0 -0.236308 -0.0567811 0.270453 -0.13275 0.123515 0.249135 0.154921 0.0340667 0.123111 -0.398515 0.13442 0.204172 
108 1 0.0888233 0.5363 0.236855 -0.123522 0.0827667 0.146445 0.129189 -0.0411394 0.0973726 -0.0533993 0.244965 -0.146999 -0.0159591 0.0167565 0 0.146999 -0.0159591 -0.0533993 -0.244965 0.0411394 0.0973726 0.146445 -0.129189 0.123522 0.0827667 0.5363 -0.236855 
109 1 0.135995 -0.22841 0.145147 0.0606767 -0.0314435 0.198408 0.290435 0.0613956 0.317575 0.0720896 -0.0390356 0.417295 -0.0845624 -0.107169 0 -0.417295 -0.0845624 0.0720896 0.0390356 -0.0613956 0.317575 0.198408 -0.290435 -0.0606767 -0.0314435 -0.22841 -0.145147 
110 1 0.108849 -0.180689 -0.176959 -0.396177 -0.227179 0.0685294 0.048328 0.226868 -0.0863321 0.131024 -0.0855527 0.0273938 -0.209236 -0.430115 0 -0.0273938 -0.209236 0.131024 0.0855527 -0.226868 -0.0863321 0.0685294 -0.048328 0.396177 -0.227179 -0.180689 0.176959 
111 1 0.122036 -0.506327 0.195227 -0.123573 -0.0224425 -0.150013 -0.0655025 0.00731936 -0.252342 0.151135 0.0860778 -0.0838556 -0.242384 -0.0798501 0 0.0838556 -0.242384 0.151135 -0.0860778 -0.00731936 -0.252342 -0.150013 0.0655025 0.123573 -0.0224425 -0.506327 -0.195227 
112 1 0.116047 -0.0791367 -0.145698 -0.406286 -0.275875 0.0970144 -0.236521 0.0706469 -0.00634838 -0.0421466 -0.163487 0.213544 -0.250929 -0.218531 0 -0.213544 -0.250929 -0.0421466 0.163487 -0.0706469 -0.00634838 0.0970144 0.236521 0.406286 -0.275875 -0.0791367 0.145698 