ITEM: TIMESTEP
0
ITEM: NUMBER OF ATOMS
6912
ITEM: BOX BOUNDS pp pp pp
-1.1038800000000000e+01 1.1037000000000001e+01
-1.1042800000000000e+01 1.1032999999999999e+01
-1.1037800000000001e+01 1.1038000000000000e+01
ITEM: ATOMS id type c_myBond[1] c_myBond[2] c_myBond[3] c_myBond[4] c_myBond[5] c_myBond[6] c_myBond[7] c_myBond[8] c_myBond[9] c_myBond[10] c_myBond[11] c_myBond[12] c_myBond[13] c_myBond[14] c_myBond[15] c_myBond[16] c_myBond[17] c_myBond[18] c_myBond[19] c_myBond[20] c_myBond[21] c_myBond[22] c_myBond[23] c_myBond[24] c_myBond[25] c_myBond[26] c_myBond[27] 
1 1 0.129369 0.0896152 0.0681429 -0.0548603 0.253626 -0.0107205 0.205934 -0.104989 -0.281471 -0.175248 0.321015 -0.361059 0.0387545 -0.207794 0 0.361059 0.0387545 -0.175248 -0.321015 0.104989 -0.281471 -0.0107205 -0.205934 0.0548603 0.253626 0.0896152 -0.0681429 
2 1 0.0904292 -0.00261031 -0.245932 -0.392426 0.0878019 -0.0744873 -0.00177856 0.0596149 0.0495839 -0.359726 0.260918 -0.126218 0.046693 0.318267 0 0.126218 0.046693 -0.359726 -0.260918 -0.0596149 0.0495839 -0.0744873 0.00177856 0.392426 0.0878019 -0.00261031 0.245932 
3 1 0.105238 -0.307266 -0.154997 0.255002 -0.0131984 0.153212 -0.0213561 0.149463 0.0857209 0.109731 -0.333327 -0.336882 0.154279 0.0679229 0 0.336882 0.154279 0.109731 0.333327 -0.149463 0.0857209 0.153212 0.0213561 -0.255002 -0.0131984 -0.307266 0.154997 
4 1 0.101672 -0.249515 -0.04749 -0.201076 0.0499334 0.119306 -0.0757366 0.275535 0.172032 -0.222503 0.423176 0.034569 -0.137092 0.192369 0 -0.034569 -0.137092 -0.222503 -0.423176 -0.275535 0.172032 0.119306 0.0757366 0.201076 0.0499334 -0.249515 0.04749 
5 1 0.0946757 0.0677994 0.00528263 -0.145599 0.494962 0.0312944 -0.0693821 -0.30351 0.184848 0.0239351 0.0531609 0.0206616 0.303263 -0.0512768 0 -0.0206616 0.303263 0.0239351 -0.0531609 0.30351 0.184848 0.0312944 0.0693821 0.145599 0.494962 0.0677994 -0.00528263 
6 1 0.124176 0.433519 -0.0138656 -0.0371391 0.14661 0.228705 -0.28328 0.0298345 0.0376026 0.381594 0.0321769 0.0258412 -0.0166343 -0.114404 0 -0.0258412 -0.0166343 0.381594 -0.0321769 -0.0298345 0.0376026 0.228705 0.28328 0.0371391 0.14661 0.433519 0.0138656 
7 1 0.116411 0.127738 -0.3713 -0.113758 -0.380085 -0.0513073 -0.110551 -0.0893492 -0.0306712 -0.24499 0.19125 -0.142561 0.0511896 0.300317 0 0.142561 0.0511896 -0.24499 -0.19125 0.0893492 -0.0306712 -0.0513073 0.110551 0.113758 -0.380085 0.127738 0.3713 
8 1 0.111097 -0.149657 -0.122182 0.255695 0.0129447 -0.131201 -0.210873 0.0872413 0.293797 0.0448415 -0.0933733 -0.224906 -0.402281 -0.191709 0 0.224906 -0.402281 0.0448415 0.0933733 -0.0872413 0.293797 -0.131201 0.210873 -0.255695 0.0129447 -0.149657 0.122182 
9 1 0.100931 -0.144819 0.0556819 -0.235547 0.542862 0.0409516 0.0991026 -0.114712 -0.0982132 0.176721 -0.206929 0.103588 0.0744741 0.0472206 0 -0.103588 0.0744741 0.176721 0.206929 0.114712 -0.0982132 0.0409516 -0.0991026 0.235547 0.542862 -0.144819 -0.0556819 
10 1 0.101442 0.264941 -0.201722 0.235904 -0.212373 -0.100976 -0.127083 -0.151085 -0.0216612 -0.0596284 0.284172 -0.154347 0.349155 0.131738 0 0.154347 0.349155 -0.0596284 -0.284172 0.151085 -0.0216612 -0.100976 0.127083 -0.235904 -0.212373 0.264941 0.201722 
11 1 0.106939 0.0127554 0.13859 -0.00833198 0.144674 0.0595598 0.0335166 -0.194299 -0.582582 -0.103262 -0.0374017 -0.097365 0.23489 -0.046702 0 0.097365 0.23489 -0.103262 0.0374017 0.194299 -0.582582 0.0595598 -0.0335166 0.00833198 0.144674 0.0127554 -0.13859 
12 1 0.127381 -0.374723 0.285579 0.071483 -0.11668 0.271029 -0.0874949 0.297802 0.0710643 0.045114 -0.126515 0.125665 -0.0116142 0.317765 0 -0.125665 -0.0116142 0.045114 0.126515 -0.297802 0.0710643 0.271029 0.0874949 -0.071483 -0.11668 -0.374723 -0.285579 
13 1 0.111692 0.151272 0.323065 0.0813295 -0.201153 -0.224153 -0.167583 -0.165877 -0.148065 -0.10203 -0.18373 -0.163778 0.354302 0.0525629 0 0.163778 0.354302 -0.10203 0.18373 0.165877 -0.148065 -0.224153 0.167583 -0.0813295 -0.201153 0.151272 -0.323065 
14 1 0.123635 -0.156348 0.213994 0.359382 -0.0671037 0.0943277 -0.0650203 -0.150763 -0.192411 0.337724 -0.0243301 0.0521137 -0.279502 0.235544 0 -0.0521137 -0.279502 0.337724 0.0243301 0.150763 -0.192411 0.0943277 0.0650203 -0.359382 -0.0671037 -0.156348 -0.213994 
15 1 0.124551 -0.00865823 0.0341963 0.100138 -0.131274 -0.160726 0.208694 -0.0173332 -0.166962 -0.259987 -0.518309 0.043867 0.0561207 0.255424 0 -0.043867 0.0561207 -0.259987 0.518309 0.0173332 -0.166962 -0.160726 -0.208694 -0.100138 -0.131274 -0.00865823 -0.0341963 
16 1 0.0761159 0.185677 -0.0682922 -0.320744 -0.0286186 0.0834995 -0.093797 0.235148 0.021691 -0.124979 0.466456 -0.135293 0.16726 -0.110893 0 0.135293 0.16726 -0.124979 -0.466456 -0.235148 0.021691 0.0834995 0.093797 0.320744 -0.0286186 0.185677 0.0682922 
17 1 0.116327 0.330882 -0.0306016 -0.0836278 0.0584576 0.144651 0.175458 -0.00880274 -0.292106 -0.16318 -0.195843 -0.385124 0.100119 0.193546 0 0.385124 0.100119 -0.16318 0.195843 0.00880274 -0.292106 0.144651 -0.175458 0.0836278 0.0584576 0.330882 0.0306016 
18 1 0.117799 -0.225644 -0.15689 0.462461 -0.0309326 -0.0941686 -0.222419 -0.154156 -0.118329 -0.134123 -0.103837 -0.154461 -0.217664 0.164516 0 0.154461 -0.217664 -0.134123 0.103837 0.154156 -0.118329 -0.0941686 0.222419 -0.462461 -0.0309326 -0.225644 0.15689 
19 1 0.0976461 0.349518 0.038703 -0.130635 0.0515243 -0.152855 -0.139326 -0.0701281 -0.0564492 0.136022 0.42412 -0.0339183 0.239144 -0.31311 0 0.0339183 0.239144 0.136022 -0.42412 0.0701281 -0.0564492 -0.152855 0.139326 0.130635 0.0515243 0.349518 -0.038703 
20 1 0.115076 0.0883201 -0.198346 -0.33707 0.458114 -0.0584906 -0.233807 -0.024811 -0.0220646 0.0177928 -0.0521478 -0.219231 0.0824514 0.156764 0 0.219231 0.0824514 0.0177928 0.0521478 0.024811 -0.0220646 -0.0584906 0.233807 0.33707 0.458114 0.0883201 0.198346 
21 1 0.101961 0.116068 -0.133671 -0.0243592 -0.0261313 0.135589 0.0596169 -0.172757 -0.00164952 -0.0276448 -0.217523 -0.411409 0.347519 0.393676 0 0.411409 0.347519 -0.0276448 0.217523 0.172757 -0.00164952 0.135589 -0.0596169 0.0243592 -0.0261313 0.116068 0.133671 
22 1 0.115111 0.0834866 -0.0617063 0.144578 -0.176535 -0.0174446 0.0587571 -0.0107663 -0.590648 0.186142 0.149773 0.0539867 0.059065 0.204614 0 -0.0539867 0.059065 0.186142 -0.149773 0.0107663 -0.590648 -0.0174446 -0.0587571 -0.144578 -0.176535 0.0834866 0.0617063 
23 1 0.0932602 -0.0483481 0.125195 -0.00278139 0.0725101 0.0798096 0.0871138 -0.244658 -0.101664 -0.348472 -0.154504 -0.166169 -0.463753 0.0957997 0 0.166169 -0.463753 -0.348472 0.154504 0.244658 -0.101664 0.0798096 -0.0871138 0.00278139 0.0725101 -0.0483481 -0.125195 
24 1 0.104747 0.412119 -0.123419 -0.150783 -0.124219 -0.413725 0.0272258 -0.117191 0.145786 -0.123366 0.0224821 0.112393 0.142283 -0.206212 0 -0.112393 0.142283 -0.123366 -0.0224821 0.117191 0.145786 -0.413725 -0.0272258 0.150783 -0.124219 0.412119 0.123419 
25 1 0.110384 0.0406269 -0.31444 0.0284956 -0.196907 0.188722 0.0618079 0.07352 0.219087 0.252051 0.144365 0.427235 -0.00579052 -0.0153213 0 -0.427235 -0.00579052 0.252051 -0.144365 -0.07352 0.219087 0.188722 -0.0618079 -0.0284956 -0.196907 0.0406269 0.31444 
26 1 0.124724 -0.0948491 0.340394 0.139946 0.196287 0.0573052 -0.289187 0.0758245 -0.0519987 -0.192423 0.0860188 -0.0870161 0.358563 -0.286676 0 0.0870161 0.358563 -0.192423 -0.0860188 -0.0758245 -0.0519987 0.0573052 0.289187 -0.139946 0.196287 -0.0948491 -0.340394 
27 1 0.143244 0.152229 0.00948422 -0.184549 0.123604 0.318291 0.166526 0.167009 0.12061 -0.0214908 0.329392 0.137656 0.043654 0.502206 0 -0.137656 0.043654 -0.0214908 -0.329392 -0.167009 0.12061 0.318291 -0.166526 0.184549 0.123604 0.152229 -0.00948422 
28 1 0.118874 -0.216713 0.236539 -0.0673343 -0.340762 -0.0171895 -0.0123209 -0.132691 0.19384 -0.211539 -0.0236488 -0.206122 -0.36217 0.0607095 0 0.206122 -0.36217 -0.211539 0.0236488 0.132691 0.19384 -0.0171895 0.0123209 0.0673343 -0.340762 -0.216713 -0.236539 
29 1 0.0917189 0.320916 -0.0834464 0.261426 0.098146 -0.167069 0.369571 0.278823 0.07627 0.21502 0.0703232 -0.0600476 0.0754731 0.0841228 0 0.0600476 0.0754731 0.21502 -0.0703232 -0.278823 0.07627 -0.167069 -0.369571 -0.261426 0.098146 0.320916 0.0834464 
30 1 0.0992554 0.0115565 0.115118 -0.155647 -0.0852605 0.0498606 0.263852 -0.000677899 0.220164 -0.508242 0.20165 -0.185423 0.0177891 -0.0417597 0 0.185423 0.0177891 -0.508242 -0.20165 0.000677899 0.220164 0.0498606 -0.263852 0.155647 -0.0852605 0.0115565 -0.115118 
31 1 0.118228 0.0147708 0.48102 -0.118345 -0.16807 0.078221 -0.114181 -0.314637 0.0910885 -0.188636 0.122979 0.0640605 0.1312 0.235262 0 -0.0640605 0.1312 -0.188636 -0.122979 0.314637 0.0910885 0.078221 0.114181 0.118345 -0.16807 0.0147708 -0.48102 
32 1 0.122793 -0.0719228 -0.00414676 0.0475709 -0.167349 0.166505 -0.108712 0.0132429 0.419768 -0.168192 0.138825 -0.40529 -0.180295 0.0926505 0 0.40529 -0.180295 -0.168192 -0.138825 -0.0132429 0.419768 0.166505 0.108712 -0.0475709 -0.167349 -0.0719228 0.00414676 
33 1 0.0964592 -0.006127 0.189 -0.33048 -0.127593 0.41629 -0.0519984 0.0286135 0.00309943 0.0841003 0.354291 0.142696 0.0262733 -0.128585 0 -0.142696 0.0262733 0.0841003 -0.354291 -0.0286135 0.00309943 0.41629 0.0519984 0.33048 -0.127593 -0.006127 -0.189 
34 1 0.0997728 0.203576 -0.249833 0.221954 -0.107759 -0.309486 0.154149 0.417398 0.0484488 0.017443 0.0133635 -0.062262 0.181619 0.0601479 0 0.062262 0.181619 0.017443 -0.0133635 -0.417398 0.0484488 -0.309486 -0.154149 -0.221954 -0.107759 0.203576 0.249833 
35 1 0.0678377 0.161552 0.211674 -0.182178 0.129193 0.0351975 -0.0048423 -0.215485 -0.194849 0.15745 -0.039454 -0.401817 -0.322696 0.0568541 0 0.401817 -0.322696 0.15745 0.039454 0.215485 -0.194849 0.0351975 0.0048423 0.182178 0.129193 0.161552 -0.211674 
36 1 0.0689509 -0.220353 0.127 0.366144 -0.144797 0.0863956 -0.272425 0.1684 -0.269844 0.144285 0.120818 0.138584 0.162119 0.181828 0 -0.138584 0.162119 0.144285 -0.120818 -0.1684 -0.269844 0.0863956 0.272425 -0.366144 -0.144797 -0.220353 -0.127 
37 1 0.101751 -0.0679293 -0.0547565 0.154657 -0.383379 -0.111105 0.421624 -0.260426 -0.0229636 0.121752 -0.17104 0.0724218 -0.0538355 -0.147018 0 -0.0724218 -0.0538355 0.121752 0.17104 0.260426 -0.0229636 -0.111105 -0.421624 -0.154657 -0.383379 -0.0679293 0.0547565 
38 1 0.126579 -0.049595 -0.209602 -0.257886 0.12684 -0.24238 -0.126115 0.144323 -0.217538 -0.268378 -0.283478 0.0104309 -0.18422 0.289055 0 -0.0104309 -0.18422 -0.268378 0.283478 -0.144323 -0.217538 -0.24238 0.126115 0.257886 0.12684 -0.049595 0.209602 
39 1 0.100566 0.0517366 -0.133823 0.172416 0.0851521 -0.150485 -0.08164 -0.151536 -0.463426 -0.212894 0.226793 -0.185164 0.167806 0.17998 0 0.185164 0.167806 -0.212894 -0.226793 0.151536 -0.463426 -0.150485 0.08164 -0.172416 0.0851521 0.0517366 0.133823 
40 1 0.114126 0.165225 -0.314507 -0.0411622 0.249998 -0.00211936 -0.0847488 -0.0220498 0.243141 -0.253054 0.0583645 -0.00783572 0.18908 -0.528294 0 0.00783572 0.18908 -0.253054 -0.0583645 0.0220498 0.243141 -0.00211936 0.0847488 0.0411622 0.249998 0.165225 0.314507 
41 1 0.120042 0.380607 0.324507 0.0386436 0.160296 0.13655 0.0732242 -0.121804 0.02925 0.127649 0.301272 -0.229959 0.0713902 -0.189257 0 0.229959 0.0713902 0.127649 -0.301272 0.121804 0.02925 0.13655 -0.0732242 -0.0386436 0.160296 0.380607 -0.324507 
42 1 0.131523 0.0587017 0.35832 -0.0561747 -0.0374385 -0.124137 -0.0381048 0.140028 -0.217147 -0.426988 0.138254 0.227546 0.112053 -0.16861 0 -0.227546 0.112053 -0.426988 -0.138254 -0.140028 -0.217147 -0.124137 0.0381048 0.0561747 -0.0374385 0.0587017 -0.35832 
43 1 0.116492 -0.123278 -0.336495 -0.154146 -0.0328648 -0.0922968 0.0101804 -0.396721 0.228971 0.248628 -0.0598332 -0.240674 0.0630041 0.0448492 0 0.240674 0.0630041 0.248628 0.0598332 0.396721 0.228971 -0.0922968 -0.0101804 0.154146 -0.0328648 -0.123278 0.336495 
44 1 0.0977862 -0.043204 -0.0300245 0.515688 -0.292744 -0.0564069 0.147377 -0.0803373 -0.0667495 0.103633 0.0112686 -0.0864168 -0.258957 0.220883 0 0.0864168 -0.258957 0.103633 -0.0112686 0.0803373 -0.0667495 -0.0564069 -0.147377 -0.515688 -0.292744 -0.043204 0.0300245 
45 1 0.0864037 -0.0737366 -0.0874955 0.165569 -0.516165 0.259129 0.119854 -0.239168 -0.0869112 0.0667811 -0.101694 -0.0918406 -0.00873573 0.21674 0 0.0918406 -0.00873573 0.0667811 0.101694 0.239168 -0.0869112 0.259129 -0.119854 -0.165569 -0.516165 -0.0737366 0.0874955 
46 1 0.143619 -0.03574 0.0117996 -0.249457 0.247409 0.0765385 -0.334535 0.025388 -0.0738455 -0.231448 0.405065 0.0755974 0.0516636 -0.224695 0 -0.0755974 0.0516636 -0.231448 -0.405065 -0.025388 -0.0738455 0.0765385 0.334535 0.249457 0.247409 -0.03574 -0.0117996 
47 1 0.0946962 0.430413 0.0829767 -0.364676 -0.137718 0.0631079 -0.119574 0.256661 -0.0106039 0.0100195 0.0735861 -0.221322 -0.11616 0.0853841 0 0.221322 -0.11616 0.0100195 -0.0735861 -0.256661 -0.0106039 0.0631079 0.119574 0.364676 -0.137718 0.430413 -0.0829767 
48 1 0.11688 0.147344 0.174112 0.0641637 0.00944512 -0.00526116 0.148028 -0.422716 0.269045 -0.0583355 -0.161538 0.225254 -0.188326 0.331814 0 -0.225254 -0.188326 -0.0583355 0.161538 0.422716 0.269045 -0.00526116 -0.148028 -0.0641637 0.00944512 0.147344 -0.174112 
49 1 0.118774 0.241596 -0.227495 -0.0224115 -0.247383 -0.206601 0.0610535 -0.152386 -0.385601 0.191079 0.00631113 -0.184057 0.196534 0.0400407 0 0.184057 0.196534 0.191079 -0.00631113 0.152386 -0.385601 -0.206601 -0.0610535 0.0224115 -0.247383 0.241596 0.227495 
50 1 0.119193 -0.0124027 0.0124625 -0.174726 -0.0434117 -0.206282 0.108766 -0.0722617 -0.132752 0.233511 -0.498156 -0.244704 -0.0902942 0.196625 0 0.244704 -0.0902942 0.233511 0.498156 0.0722617 -0.132752 -0.206282 -0.108766 0.174726 -0.0434117 -0.0124027 -0.0124625 
51 1 0.13492 -0.381113 -0.0748443 0.147837 0.0848491 -0.0756264 -0.325086 -0.0996541 0.226904 0.149911 0.0248541 -0.059034 0.290281 -0.269967 0 0.059034 0.290281 0.149911 -0.0248541 0.0996541 0.226904 -0.0756264 0.325086 -0.147837 0.0848491 -0.381113 0.0748443 
52 1 0.123745 0.089874 -0.0181439 -0.288853 0.109817 -0.0809056 0.083904 -0.206787 0.242027 -0.502279 0.0404894 -0.0914256 0.0149482 -0.193232 0 0.0914256 0.0149482 -0.502279 -0.0404894 0.206787 0.242027 -0.0809056 -0.083904 0.288853 0.109817 0.089874 0.0181439 
53 1 0.0975313 -0.0561404 0.356288 0.330742 0.0453577 -0.150095 -0.349735 0.0442299 0.114806 -0.20716 0.0759993 0.0659481 0.203929 0.0877762 0 -0.0659481 0.203929 -0.20716 -0.0759993 -0.0442299 0.114806 -0.150095 0.349735 -0.330742 0.0453577 -0.0561404 -0.356288 
54 1 0.10725 0.546889 -0.181316 -0.171334 -0.121769 0.0105166 -0.208305 -0.128767 -0.193011 -0.0659682 0.0048512 0.0873314 0.109318 -0.0716354 0 -0.0873314 0.109318 -0.0659682 -0.0048512 0.128767 -0.193011 0.0105166 0.208305 0.171334 -0.121769 0.546889 0.181316 
55 1 0.120381 -0.176579 0.133285 -0.347236 -0.366037 0.0699101 0.326642 0.00620208 0.00570688 -0.230911 0.0347331 -0.119663 0.053307 -0.162223 0 0.119663 0.053307 -0.230911 -0.0347331 -0.00620208 0.00570688 0.0699101 -0.326642 0.347236 -0.366037 -0.176579 -0.133285 
56 1 0.122045 0.193541 0.125972 0.118086 0.0529936 0.282066 -0.348328 -0.26664 -0.176805 0.261982 -0.172165 -0.0120378 -0.0958248 0.19528 0 0.0120378 -0.0958248 0.261982 0.172165 0.26664 -0.176805 0.282066 0.348328 -0.118086 0.0529936 0.193541 -0.125972 
57 1 0.0993679 0.258498 0.199681 -0.139266 -0.0473975 -0.0230331 0.291122 -0.275049 -0.00126123 -0.309114 -0.0657968 -0.0402859 0.11789 0.436638 0 0.0402859 0.11789 -0.309114 0.0657968 0.275049 -0.00126123 -0.0230331 -0.291122 0.139266 -0.0473975 0.258498 -0.199681 
58 1 0.10185 -0.0863957 0.266294 0.0281038 0.288381 -0.0845039 -0.214393 0.387348 0.204579 -0.116622 0.0549074 -0.260088 -0.0354121 0.11965 0 0.260088 -0.0354121 -0.116622 -0.0549074 -0.387348 0.204579 -0.0845039 0.214393 -0.0281038 0.288381 -0.0863957 -0.266294 
59 1 0.133704 0.338624 0.0623828 -0.131395 -0.308629 0.29018 0.243065 0.132338 0.0360754 0.0797891 -0.0948638 0.0165931 -0.290184 -0.118137 0 -0.0165931 -0.290184 0.0797891 0.0948638 -0.132338 0.0360754 0.29018 -0.243065 0.131395 -0.308629 0.338624 -0.0623828 
60 1 0.113153 -0.00160316 -0.129387 0.0519184 0.168017 -0.353492 -0.214355 -0.123905 -0.0367491 0.171231 0.391812 0.0666907 0.277114 -0.0359884 0 -0.0666907 0.277114 0.171231 -0.391812 0.123905 -0.0367491 -0.353492 0.214355 -0.0519184 0.168017 -0.00160316 0.129387 
61 1 0.156991 -0.0210368 -0.216064 0.00667998 0.0143808 -0.200985 -0.257279 0.0971393 -0.0460095 0.334913 0.162131 -0.301376 -0.248677 0.294487 0 0.301376 -0.248677 0.334913 -0.162131 -0.0971393 -0.0460095 -0.200985 0.257279 -0.00667998 0.0143808 -0.0210368 0.216064 
62 1 0.0978879 0.211797 -0.124677 0.0324187 -0.199907 0.328029 -0.214523 -0.127981 -0.1676 -0.099604 -0.190738 0.291334 -0.0401937 0.367962 0 -0.291334 -0.0401937 -0.099604 0.190738 0.127981 -0.1676 0.328029 0.214523 -0.0324187 -0.199907 0.211797 0.124677 
63 1 0.149181 -0.218342 0.27367 -0.269234 -0.14075 -0.146619 0.158156 -0.0282079 0.0914379 0.175316 -0.31086 0.122966 -0.248037 -0.22563 0 -0.122966 -0.248037 0.175316 0.31086 0.0282079 0.0914379 -0.146619 -0.158156 0.269234 -0.14075 -0.218342 -0.27367 
64 1 0.0972956 0.339389 0.259779 0.317371 0.0100945 -0.0972019 0.0210401 -0.0764482 -0.227185 0.309486 0.0795075 0.17869 -0.0603528 -0.151525 0 -0.17869 -0.0603528 0.309486 -0.0795075 0.0764482 -0.227185 -0.0972019 -0.0210401 -0.317371 0.0100945 0.339389 -0.259779 
65 1 0.126005 0.0457534 0.181022 0.327446 -0.338084 -0.138885 0.117078 -0.0661206 0.187552 -0.0634501 0.260254 0.0897198 0.300323 0.0462692 0 -0.0897198 0.300323 -0.0634501 -0.260254 0.0661206 0.187552 -0.138885 -0.117078 -0.327446 -0.338084 0.0457534 -0.181022 
66 1 0.101723 0.242467 -0.250572 0.115597 -0.4343 -0.0298675 -0.0459936 0.178347 0.0349942 0.245949 0.092288 -0.107972 -0.226246 -0.130775 0 0.107972 -0.226246 0.245949 -0.092288 -0.178347 0.0349942 -0.0298675 0.0459936 -0.115597 -0.4343 0.242467 0.250572 
67 1 0.112657 0.0500667 0.186796 -0.273004 0.0164659 0.0280796 0.0176806 0.0978342 0.0736673 -0.229698 0.295629 0.00815277 0.0812653 0.670628 0 -0.00815277 0.0812653 -0.229698 -0.295629 -0.0978342 0.0736673 0.0280796 -0.0176806 0.273004 0.0164659 0.0500667 -0.186796 
68 1 0.0646962 0.254839 0.107732 0.0271208 0.0479084 0.163964 0.0426862 -0.370189 0.243168 -0.0706234 0.100871 -0.0243157 0.414007 -0.129524 0 0.0243157 0.414007 -0.0706234 -0.100871 0.370189 0.243168 0.163964 -0.0426862 -0.0271208 0.0479084 0.254839 -0.107732 
69 1 0.105955 0.135946 0.172464 0.0668837 0.213892 0.304678 0.274388 0.0741971 -0.233062 0.0331928 -0.284667 -0.0300867 0.186177 0.334384 0 0.0300867 0.186177 0.0331928 0.284667 -0.0741971 -0.233062 0.304678 -0.274388 -0.0668837 0.213892 0.135946 -0.172464 
70 1 0.120941 -0.255921 -0.0205965 -0.396653 0.18239 -0.119994 0.187295 -0.413308 -0.0258191 0.122341 -0.0376383 -0.0212673 -0.0697261 -0.0403619 0 0.0212673 -0.0697261 0.122341 0.0376383 0.413308 -0.0258191 -0.119994 -0.187295 0.396653 0.18239 -0.255921 0.0205965 
71 1 0.121215 -0.0834961 -0.294898 -0.176174 -0.0696802 0.0338464 -0.062754 -0.126291 0.219495 0.164089 0.251836 0.348621 0.00970564 0.42186 0 -0.348621 0.00970564 0.164089 -0.251836 0.126291 0.219495 0.0338464 0.062754 0.176174 -0.0696802 -0.0834961 0.294898 
72 1 0.0910256 -0.10149 0.329629 -0.21157 -0.0728662 -0.238912 0.283954 -0.073278 -0.179163 0.10467 -0.221156 -0.300694 0.0594872 -0.0628385 0 0.300694 0.0594872 0.10467 0.221156 0.073278 -0.179163 -0.238912 -0.283954 0.21157 -0.0728662 -0.10149 -0.329629 
73 1 0.0911754 -0.0760196 -0.234211 -0.0380796 0.35079 0.244184 -0.361256 0.0462112 0.223848 0.0996609 -0.111172 0.126348 0.0888302 0.229526 0 -0.126348 0.0888302 0.0996609 0.111172 -0.0462112 0.223848 0.244184 0.361256 0.0380796 0.35079 -0.0760196 0.234211 
74 1 0.098784 0.308335 -0.134672 0.0261297 0.18315 0.0630645 -0.148184 -0.396498 -0.0534372 -0.229125 -0.143229 0.0522898 -0.299053 0.0526141 0 -0.0522898 -0.299053 -0.229125 0.143229 0.396498 -0.0534372 0.0630645 0.148184 -0.0261297 0.18315 0.308335 0.134672 
75 1 0.104471 -0.223636 -0.302649 -0.0830708 0.0747214 -0.376502 -0.0169332 -0.18376 0.139841 -0.114997 0.163888 0.00273599 -0.289289 0.23136 0 -0.00273599 -0.289289 -0.114997 -0.163888 0.18376 0.139841 -0.376502 0.0169332 0.0830708 0.0747214 -0.223636 0.302649 
76 1 0.126351 -0.0261664 0.124497 -0.157917 0.0864064 -0.507055 0.0376739 -0.278221 0.0905982 -0.0871562 -0.135717 -0.282988 0.0306634 -0.0216834 0 0.282988 0.0306634 -0.0871562 0.135717 0.278221 0.0905982 -0.507055 -0.0376739 0.157917 0.0864064 -0.0261664 -0.124497 
77 1 0.147702 0.107596 0.0421916 0.284629 -0.0487472 -0.0853813 0.0503848 0.135377 -0.163226 -0.18634 0.174152 -0.245765 -0.0524039 -0.663712 0 0.245765 -0.0524039 -0.18634 -0.174152 -0.135377 -0.163226 -0.0853813 -0.0503848 -0.284629 -0.0487472 0.107596 -0.0421916 
78 1 0.0990857 -0.035054 -0.315986 0.258331 -0.0533371 0.201459 0.0187364 0.130515 0.104371 -0.425411 -0.157651 -0.0332148 0.197314 -0.170974 0 0.0332148 0.197314 -0.425411 0.157651 -0.130515 0.104371 0.201459 -0.0187364 -0.258331 -0.0533371 -0.035054 0.315986 
79 1 0.13418 0.230174 0.0194781 0.0585537 0.268984 0.13129 0.390717 0.0962635 0.269681 -0.0188333 0.205012 0.262187 -0.0871777 0.0219676 0 -0.262187 -0.0871777 -0.0188333 -0.205012 -0.0962635 0.269681 0.13129 -0.390717 -0.0585537 0.268984 0.230174 -0.0194781 
80 1 0.0783745 0.109005 0.334145 -0.249811 0.09149 -0.0551947 0.133902 0.00466333 0.110495 0.136835 0.0294244 0.348701 -0.360824 -0.0470294 0 -0.348701 -0.360824 0.136835 -0.0294244 -0.00466333 0.110495 -0.0551947 -0.133902 0.249811 0.09149 0.109005 -0.334145 
81 1 0.09702 -0.246657 -0.02318 0.379134 -0.23758 0.202071 0.106683 -0.0687362 0.0879064 -0.20639 0.0753417 -0.0192462 -0.0418812 -0.496733 0 0.0192462 -0.0418812 -0.20639 -0.0753417 0.0687362 0.0879064 0.202071 -0.106683 -0.379134 -0.23758 -0.246657 0.02318 
82 1 0.10708 -0.309457 0.0127591 0.466156 0.108822 -0.204704 0.202027 -0.0935521 0.168535 0.0164235 -0.219312 0.0473918 0.044609 0.070032 0 -0.0473918 0.044609 0.0164235 0.219312 0.0935521 0.168535 -0.204704 -0.202027 -0.466156 0.108822 -0.309457 -0.0127591 
83 1 0.120113 -0.271633 -0.184912 -0.126544 0.172548 -0.37411 0.180581 -0.0465909 -0.0505214 -0.268892 0.200875 0.21976 -0.0697513 0.0791563 0 -0.21976 -0.0697513 -0.268892 -0.200875 0.0465909 -0.0505214 -0.37411 -0.180581 0.126544 0.172548 -0.271633 0.184912 
84 1 0.105755 -0.057261 -0.106555 0.0499887 -0.276807 -0.0584807 -0.255178 -0.118221 -0.236628 0.298771 0.337091 0.0208868 -0.251744 -0.0455226 0 -0.0208868 -0.251744 0.298771 -0.337091 0.118221 -0.236628 -0.0584807 0.255178 -0.0499887 -0.276807 -0.057261 0.106555 
85 1 0.0947516 -0.294629 0.151221 0.130478 0.0792584 0.0898882 0.0944361 -0.272552 -0.212435 0.0338568 0.209179 -0.287601 0.0388412 0.450518 0 0.287601 0.0388412 0.0338568 -0.209179 0.272552 -0.212435 0.0898882 -0.0944361 -0.130478 0.0792584 -0.294629 -0.151221 
86 1 0.109091 -0.319173 -0.00359508 0.0441676 -0.106958 0.255475 -0.26395 -0.366882 0.0160615 0.136366 -0.0276731 -0.0564724 0.132768 -0.38665 0 0.0564724 0.132768 0.136366 0.0276731 0.366882 0.0160615 0.255475 0.26395 -0.0441676 -0.106958 -0.319173 0.00359508 
87 1 0.10485 0.153627 0.00673873 -0.357891 0.181154 -0.204113 0.298249 0.0033254 -0.268045 0.100129 -0.0500887 -0.227315 -0.0551138 0.302433 0 0.227315 -0.0551138 0.100129 0.0500887 -0.0033254 -0.268045 -0.204113 -0.298249 0.357891 0.181154 0.153627 -0.00673873 
88 1 0.153642 0.386409 0.0795368 -0.170343 -0.00566422 0.121659 -0.188257 -0.0564608 -0.0629722 -0.0497731 0.311244 -0.0176783 -0.0877779 -0.548727 0 0.0176783 -0.0877779 -0.0497731 -0.311244 0.0564608 -0.0629722 0.121659 0.188257 0.170343 -0.00566422 0.386409 -0.0795368 
89 1 0.128708 0.00569735 0.0630477 0.0958294 -0.342242 0.226364 0.121849 -0.0704868 -0.0961365 0.0705692 0.208389 0.376975 0.182811 -0.36179 0 -0.376975 0.182811 0.0705692 -0.208389 0.0704868 -0.0961365 0.226364 -0.121849 -0.0958294 -0.342242 0.00569735 -0.0630477 
90 1 0.104024 -0.0515867 -0.15491 -0.163512 0.0211104 -0.212868 -0.147107 -0.208141 0.16594 -0.371117 0.137946 -0.0276796 -0.332402 -0.284021 0 0.0276796 -0.332402 -0.371117 -0.137946 0.208141 0.16594 -0.212868 0.147107 0.163512 0.0211104 -0.0515867 0.15491 
91 1 0.113515 -0.0955834 -0.292635 0.40399 0.013949 -0.231334 -0.0140085 0.251737 0.24082 0.0319406 0.0149539 0.131614 0.16049 -0.211781 0 -0.131614 0.16049 0.0319406 -0.0149539 -0.251737 0.24082 -0.231334 0.0140085 -0.40399 0.013949 -0.0955834 0.292635 
92 1 0.124053 0.146913 -0.420858 -0.0361955 0.0478158 -0.365137 -0.0640688 0.0161464 0.195925 -0.17468 0.147248 0.0592616 -0.0804014 0.344819 0 -0.0592616 -0.0804014 -0.17468 -0.147248 -0.0161464 0.195925 -0.365137 0.0640688 0.0361955 0.0478158 0.146913 0.420858 
93 1 0.136607 0.268068 0.51039 0.0443936 0.149422 0.0928082 0.191712 -0.108039 0.0860796 -0.0503814 -0.110772 0.00167799 0.0527715 0.350137 0 -0.00167799 0.0527715 -0.0503814 0.110772 0.108039 0.0860796 0.0928082 -0.191712 -0.0443936 0.149422 0.268068 -0.51039 
94 1 0.109088 -0.156535 0.0682147 -0.0977854 0.207426 -0.294215 -0.290238 0.0265997 -0.100669 -0.12365 0.254795 0.336172 -0.149992 -0.204424 0 -0.336172 -0.149992 -0.12365 -0.254795 -0.0265997 -0.100669 -0.294215 0.290238 0.0977854 0.207426 -0.156535 -0.0682147 
95 1 0.128783 -0.129088 -0.0381834 -0.245984 -0.296741 0.0074733 -0.029374 0.187724 -0.21792 0.353025 0.139894 0.226218 -0.196391 -0.177345 0 -0.226218 -0.196391 0.353025 -0.139894 -0.187724 -0.21792 0.0074733 0.029374 0.245984 -0.296741 -0.129088 0.0381834 
96 1 0.115372 0.0815731 0.15269 -0.208658 -0.0314914 0.0979601 0.0126645 0.351274 0.248211 -0.155561 -0.126288 -0.252049 -0.355089 -0.0442521 0 0.252049 -0.355089 -0.155561 0.126288 -0.351274 0.248211 0.0979601 -0.0126645 0.208658 -0.0314914 0.0815731 -0.15269 
97 1 0.128907 -0.220676 0.0928206 0.467644 0.141204 0.0849265 -0.210101 0.166273 -0.0490506 0.0299892 -0.00415247 -0.188429 -0.26041 0.191903 0 0.188429 -0.26041 0.0299892 0.00415247 -0.166273 -0.0490506 0.0849265 0.210101 -0.467644 0.141204 -0.220676 -0.0928206 
98 1 0.0717183 -0.0822719 -0.0413649 0.0445765 -0.0219524 0.371574 -0.275933 0.135143 0.0474205 -0.260501 0.315294 0.0922851 -0.279178 0.0347907 0 -0.0922851 -0.279178 -0.260501 -0.315294 -0.135143 0.0474205 0.371574 0.275933 -0.0445765 -0.0219524 -0.0822719 0.0413649 
99 1 0.0887384 0.0640968 -0.0841308 -0.313674 -0.112824 0.257694 -0.426616 0.0876213 -0.292084 -0.127581 -0.0253387 -0.0799401 -0.107019 0.055361 0 0.0799401 -0.107019 -0.127581 0.0253387 -0.0876213 -0.292084 0.257694 0.426616 0.313674 -0.112824 0.0640968 0.0841308 
100 1 0.138778 0.192553 -0.443355 0.0366776 -0.00965059 -0.0482223 -0.0532576 -0.204744 -0.172113 -0.0517349 0.201808 0.211273 0.316288 0.0166892 0 -0.211273 0.316288 -0.0517349 -0.201808 0.204744 -0.172113 -0.0482223 0.0532576 -0.0366776 -0.00965059 0.192553 0.443355 
101 1 0.116374 0.201754 0.314021 0.0109963 -0.0975968 -0.179384 0.0997078 -0.302044 -0.273188 -0.0107971 0.203603 -0.0243934 0.116264 0.41803 0 0.0243934 0.116264 -0.0107971 -0.203603 0.302044 -0.273188 -0.179384 -0.0997078 -0.0109963 -0.0975968 0.201754 -0.314021 
102 1 0.117399 0.329203 0.0205209 -0.210591 0.157636 -0.0929065 -0.144055 -0.0755251 -0.0100152 -0.212457 -0.239866 0.405266 -0.109985 0.12496 0 -0.405266 -0.109985 -0.212457 0.239866 0.0755251 -0.0100152 -0.0929065 0.144055 0.210591 0.157636 0.329203 -0.0205209 
103 1 0.1349 0.0204769 -0.17702 0.221314 0.137542 -0.120019 0.320984 0.097399 0.0368171 0.041718 0.126841 -0.204727 0.112254 0.632022 0 0.204727 0.112254 0.041718 -0.126841 -0.097399 0.0368171 -0.120019 -0.320984 -0.221314 0.137542 0.0204769 0.17702 
104 1 0.140163 -0.105722 0.236058 0.199833 0.429424 0.187927 -0.0165408 0.0521963 -0.264373 0.210049 -0.172836 0.0915609 0.0965504 -0.133082 0 -0.0915609 0.0965504 0.210049 0.172836 -0.0521963 -0.264373 0.187927 0.0165408 -0.199833 0.429424 -0.105722 -0.236058 
105 1 0.0998208 -0.0628512 -0.151922 0.237091 -0.293005 0.035254 -0.0484052 0.129423 -0.336492 0.212056 -0.281905 -0.0880892 -0.253241 -0.0450106 0 0.0880892 -0.253241 0.212056 0.281905 -0.129423 -0.336492 0.035254 0.0484052 -0.237091 -0.293005 -0.0628512 0.151922 
106 1 0.130238 0.180843 -0.236026 -0.270649 -0.029286 0.030009 -0.0540785 -0.280803 -0.0503042 -0.0163317 0.0280118 0.325672 0.380997 0.00164008 0 -0.325672 0.380997 -0.0163317 -0.0280118 0.280803 -0.0503042 0.030009 0.0540785 0.270649 -0.029286 0.180843 0.236026 
107 1 0.0572951 0.449546 0.0533663 -0.138243 0.256685 -0.0614276 -0.0205154 -0.0436064 -0.0824391 0.37493 0.216241 0.0364602 0.0265466 -0.124927 0 -0.0364602 0.0265466 0.37493 -0.216241 0.0436064 -0.0824391 -0.0614276 0.0205154 0.138243 0.256685 0.449546 -0.0533663 
108 1 0.108851 0.107717 -0.17354 0.241905 0.141986 0.298162 -0.328327 -0.0310094 -0.00843917 -0.149589 0.130645 -0.0717571 -0.37049 -0.00529494 0 0.0717571 -0.37049 -0.149589 -0.130645 0.0310094 -0.00843917 0.298162 0.328327 -0.241905 0.141986 0.107717 0.17354 
109 1 0.125121 0.137118 0.0489075 -0.398405 0.058409 0.0624364 0.305539 -0.0167593 -0.0132658 -0.21558 0.0233158 0.0927345 0.37795 0.202463 0 -0.0927345 0.37795 -0.21558 -0.0233158 0.0167593 -0.0132658 0.0624364 -0.305539 0.398405 0.058409 0.137118 -0.0489075 
110 1 0.0743448 -0.351911 0.353143 -0.0700799 0.166679 -0.0486689 -0.116823 0.31757 0.0186566 -0.0420346 -0.0617779 -0.0769064 0.0975578 0.401309 0 0.0769064 0.0975578 -0.0420346 0.0617779 -0.31757 0.0186566 -0.0486689 0.116823 0.0700799 0.166679 -0.351911 -0.353143 
111 1 0.0944264 0.0545824 -0.0182431 -0.332896 -0.0340594 0.251065 0.164549 0.114725 0.159585 0.336875 0.216263 -0.182039 0.124993 -0.306439 0 0.182039 0.124993 0.336875 -0.216263 -0.114725 0.159585 0.251065 -0.164549 0.332896 -0.0340594 0.0545824 0.0182431 
112 1 0.0854708 0.101661 0.162283 -0.319487 -0.0446129 0.0481211 -0.0718979 0.245701 -0.520533 0.0526799 0.0964788 -0.0137242 -0.0171116 -0.125655 0 0.0137242 -0.0171116 0.0526799 -0.0964788 -0.245701 -0.520533 0.0481211 0.0718979 0.319487 -0.0446129 0.101661 -0.162283 