ITEM: TIMESTEP
0
ITEM: NUMBER OF ATOMS
13824
ITEM: BOX BOUNDS pp pp pp
-12.0481 12.0446
-12.0463 12.0463
-12.0465 12.0462
ITEM: ATOMS id type xu yu zu
 1 1 7.22274 -4.00274 -11.8142
 2 1 -1.52483 -11.4777 2.04907
 3 1 4.56371 7.95283 -4.29723
 4 1 0.783172 4.01906 7.92353
 5 1 -9.72729 -9.40311 -0.267423
 6 1 -2.66915 9.62436 -9.22215
 7 1 -6.66023 -7.52627 2.72314
 8 1 5.69161 3.69514 -10.9168
 9 1 -8.14626 -2.24986 -11.5813
 10 1 9.11527 -10.1907 7.65742
 11 1 9.58055 -7.75438 2.04356
 12 1 -10.1702 -5.29418 -9.7054
 13 1 -11.434 4.67387 2.73496
 14 1 -3.98548 -4.87823 -6.88869
 15 1 -7.35652 -1.62237 -11.7081
 16 1 10.3047 -9.56609 10.8008
 17 1 0.918723 6.02986 -11.8253
 18 1 4.63528 10.3288 0.177117
 19 1 11.172 -11.2752 -0.467036
 20 1 -6.75767 -8.51203 -9.49252
 21 1 4.67337 9.12584 8.26507
 22 1 7.98112 -9.2079 5.93812
 23 1 9.25457 -5.57384 -9.05544
 24 1 0.736926 8.17727 1.09835
 25 1 -7.46005 8.68097 -0.477013
 26 1 2.33792 -7.53101 -7.76416
 27 1 10.1236 -9.26247 -8.13487
 28 1 -7.21052 -5.71065 -1.57324
 29 1 2.19245 9.91441 10.5466
 30 1 -4.27972 2.96315 0.215547
 31 1 -6.31845 -6.24895 8.24877
 32 1 -1.26006 -8.81976 -7.80062
 33 1 11.1608 -6.73572 11.6135
 34 1 7.06978 -8.03716 -9.90215
 35 1 3.67795 -4.15638 11.3178
 36 1 -0.650441 5.24626 -2.29216
 37 1 -0.979259 11.6465 -0.44592
 38 1 4.02425 -6.02253 -2.34309
 39 1 3.47571 9.4382 0.594055
 40 1 -9.86418 -1.06127 -1.41677
 41 1 9.52788 4.94426 10.9494
 42 1 0.432702 -2.66355 10.2206
 43 1 -11.831 -2.72175 -3.36836
 44 1 1.36511 6.7776 5.54262
 45 1 6.84413 -1.39551 -8.80949
 46 1 6.589 0.0983778 8.71231
 47 1 4.99373 8.77909 4.38859
 48 1 0.13008 -0.935948 11.2116
 49 1 -11.2401 -9.21147 -7.72646
 50 1 11.6523 6.35883 6.52618
 51 1 1.37638 -6.97542 9.28005
 52 1 -9.84868 5.57611 -7.26028
 53 1 5.17659 -5.12892 5.29013
 54 1 0.58444 11.0054 -5.57792
 55 1 -7.39516 -3.9414 1.73605
 56 1 8.5123 -6.34529 5.85204
 57 1 6.21897 1.93785 11.1693
 58 1 -11.9463 7.33668 -0.671351
 59 1 -4.36568 10.0653 -10.2786
 60 1 7.65828 1.25341 4.80136
 61 1 2.50581 6.8022 10.7052
 62 1 -5.34516 4.41516 -6.81637
 63 1 -5.06025 3.61653 5.51806
 64 1 -0.488009 9.52569 4.91503
 65 1 6.1251 1.50424 -7.34109
 66 1 -3.77908 4.10826 -9.59782
 67 1 -9.67577 -9.90097 7.47885
 68 1 5.84935 6.55473 0.921508
 69 1 4.26058 8.99514 7.58437
 70 1 -5.61923 -4.7645 2.39514
 71 1 -6.73821 -5.21103 3.86607
 72 1 -10.7827 3.22662 11.489
 73 1 -9.6848 -10.9141 7.81945
 74 1 -6.72389 4.26351 -4.76423
 75 1 -0.494854 -9.40333 3.41763
 76 1 -5.18189 -4.35051 -3.40566
 77 1 9.5477 2.22806 4.62717
 78 1 4.24384 11.4045 11.1611
 79 1 -10.7058 -2.93464 2.69736
 80 1 -7.98955 1.95748 -10.6529
 81 1 6.13394 -0.498242 -5.27598
 82 1 -4.24849 5.72014 8.46716
 83 1 10.7598 2.81066 -2.07622
 84 1 0.623552 11.383 0.61012
 85 1 -0.426018 4.76573 -1.18912
 86 1 -6.05489 4.41021 4.1936
 87 1 10.8592 -9.72609 -2.34097
 88 1 -0.30374 -10.8873 -9.01362
 89 1 -8.84989 7.68169 6.28844
 90 1 -11.4519 5.59933 -1.33255
 91 1 7.13249 -11.2734 2.85797
 92 1 -5.07318 -6.05784 -9.31984
 93 1 -2.71468 7.01286 7.68029
 94 1 -2.62117 -11.8371 2.56091
 95 1 3.74061 1.73874 10.4341
 96 1 -2.47577 9.19344 -5.04088
 97 1 -4.95264 11.9475 -7.4498
 98 1 -5.72127 -1.4193 -0.811166
 99 1 7.3385 5.61361 -7.32708
 100 1 -5.12419 -5.97343 -4.31183
 101 1 10.6978 -3.73318 8.2302
 102 1 -7.93954 3.34747 -9.0403
 103 1 5.81866 -0.124273 -9.79154
 104 1 -11.7219 -9.88802 0.743417
 105 1 6.23831 11.4902 5.11778
 106 1 -6.32007 5.63782 8.69769
 107 1 -11.405 -5.16468 7.81179
 108 1 6.04224 8.95198 -7.77708
 109 1 6.80512 6.60964 -0.486243
 110 1 -12.0358 -3.86146 1.61208
 111 1 11.8873 -6.81048 -1.62805
 112 1 -0.689254 4.06142 8.31318
 113 1 -7.42586 2.8521 -7.23609
 114 1 9.1072 -6.193 -5.98072
 115 1 5.39022 -2.06978 5.7323
 116 1 10.196 -8.52273 1.86667
 117 1 -2.82058 -8.32953 3.18515
 118 1 -7.26232 4.34919 6.1073
 119 1 5.63312 -6.66211 -1.38057
 120 1 9.28718 -11.4408 9.14553
 121 1 7.87556 -9.57077 -8.4614
 122 1 10.8852 6.28218 -3.91716
 123 1 -11.0614 1.98936 1.60071
 124 1 1.59453 -10.6599 0.4869
 125 1 -9.36356 -2.60296 -5.12054
 126 1 4.90803 -11.2427 -1.48658
 127 1 -4.76109 7.82582 5.40826
 128 1 5.37393 6.42538 -4.49755
 129 1 -7.62321 6.31141 7.58559
 130 1 6.43655 -7.50255 -7.87552
 131 1 -6.17941 6.60792 10.044
 132 1 -3.61963 -7.84895 -4.90088
 133 1 -12.034 -2.96615 -4.43319
 134 1 -2.03429 -3.50921 2.11868
 135 1 4.74626 6.37217 3.05953
 136 1 -7.82201 -2.36648 10.7575
 137 1 2.00119 -9.46494 -1.06401
 138 1 -6.71801 10.2883 -7.83416
 139 1 4.25031 -9.48003 -7.88947
 140 1 -6.84233 4.27072 9.74988
 141 1 3.98711 9.45364 6.55105
 142 1 0.168268 -10.9486 5.31371
 143 1 1.94859 10.1915 -11.355
 144 1 2.99249 4.06104 2.45178
 145 1 4.73265 2.75829 2.34667
 146 1 5.5297 -0.258415 1.27493
 147 1 4.19388 9.72769 8.47185
 148 1 11.9994 -4.22728 4.04337
 149 1 -1.6009 3.29243 11.1346
 150 1 7.87946 -0.745688 2.62275
 151 1 -6.34448 7.49378 5.98648
 152 1 -6.37478 -10.4909 -3.90231
 153 1 -11.8503 -3.23674 -9.47934
 154 1 2.09558 -9.49508 -9.00949
 155 1 -2.28872 5.33652 -8.42654
 156 1 4.27402 6.5948 -0.291215
 157 1 -10.0915 10.8244 -3.50215
 158 1 -0.131331 8.00698 5.53862
 159 1 -3.09193 4.1083 -3.02853
 160 1 11.8672 11.6317 -8.16613
 161 1 11.7959 -3.87862 10.3219
 162 1 -1.30236 -8.3203 -10.793
 163 1 4.42641 -8.86978 1.21364
 164 1 -10.463 -8.01595 -3.73309
 165 1 7.01126 -3.31668 6.41248
 166 1 7.90834 -8.34242 3.26555
 167 1 11.9423 4.17949 -0.625542
 168 1 -8.30628 -4.93447 -8.98642
 169 1 -2.91696 7.73854 2.83597
 170 1 -10.565 -1.7807 8.65106
 171 1 7.84353 -9.26277 1.29687
 172 1 1.80819 2.72963 -6.0886
 173 1 -1.88534 -5.33368 4.02239
 174 1 -2.1176 7.41409 4.75821
 175 1 7.73317 7.25874 -2.52011
 176 1 -8.02786 -0.384939 -1.81783
 177 1 8.91171 -5.63498 9.05348
 178 1 7.23066 7.65898 -0.444828
 179 1 -8.32515 7.1956 4.88847
 180 1 -2.77922 -4.72223 -6.11744
 181 1 2.43652 -3.86002 0.811392
 182 1 1.13821 10.0868 -7.07754
 183 1 10.3058 -1.37942 -0.406738
 184 1 4.37398 11.0606 7.84707
 185 1 -2.39193 -0.692637 -5.5859
 186 1 9.42615 7.97459 3.16017
 187 1 6.10341 -6.25917 7.30951
 188 1 4.75484 1.33265 -4.66894
 189 1 -0.0316915 5.91279 8.34662
 190 1 -2.94803 -7.79949 -11.6882
 191 1 3.9381 -2.79409 7.08825
 192 1 2.27528 -11.559 5.30184
 193 1 4.70553 -0.978967 9.18187
 194 1 -7.8353 -10.3048 -9.33575
 195 1 -10.5537 10.2302 7.98958
 196 1 2.42401 -8.75624 -9.09151
 197 1 -11.1286 6.699 -5.74594
 198 1 -7.41715 2.95569 0.439191
 199 1 4.27911 1.58501 7.5288
 200 1 3.89186 3.05491 9.39806
 201 1 5.49482 -11.2159 5.89629
 202 1 0.507383 -5.21924 -10.9972
 203 1 5.37121 -6.06146 -10.5097
 204 1 -3.77304 -9.05466 -10.4132
 205 1 -2.59225 7.16706 6.56025
 206 1 2.29862 -11.3005 -11.43
 207 1 10.8021 11.1096 3.60242
 208 1 11.4847 3.23482 9.76488
 209 1 -9.72365 -5.3243 -1.03068
 210 1 7.32395 11.4957 -10.3199
 211 1 3.73303 4.94328 -4.53398
 212 1 9.35221 -8.83282 -7.87888
 213 1 7.26767 -11.7428 -11.5566
 214 1 -3.42138 -0.19819 -5.44052
 215 1 -9.0982 -9.648 -11.6657
 216 1 10.7045 7.06518 7.69352
 217 1 -5.05075 -10.0794 -1.67429
 218 1 -2.24301 11.757 11.4968
 219 1 -0.560033 8.0768 10.6849
 220 1 -4.27948 0.367823 -11.9518
 221 1 0.881092 -7.14705 11.4514
 222 1 -3.53829 6.89582 -9.36898
 223 1 5.95905 4.10166 7.24283
 224 1 -8.44726 -0.597349 -5.06089
 225 1 -1.30771 8.51587 -5.81176
 226 1 9.26472 -9.70403 -9.94524
 227 1 -11.9657 6.36983 -1.07877
 228 1 10.3179 -3.30851 -1.76862
 229 1 -6.45257 -1.60704 -1.30218
 230 1 -7.21341 7.38861 -2.16435
 231 1 1.8479 9.15548 5.3078
 232 1 -8.4928 10.8904 -6.79741
 233 1 1.05758 -3.16228 10.9959
 234 1 8.75085 8.56593 -8.01035
 235 1 5.19648 -3.69266 -10.775
 236 1 6.01768 2.10099 -9.51494
 237 1 3.98931 -3.67158 -11.9169
 238 1 3.49708 11.3875 5.76489
 239 1 11.8885 -7.29258 5.26862
 240 1 11.6934 6.65291 -6.0553
 241 1 -0.300973 11.8776 -5.83928
 242 1 -6.91471 -9.81178 8.94401
 243 1 -3.06302 -7.95493 -8.29645
 244 1 -6.49655 -9.22154 9.65105
 245 1 4.99248 -3.56898 7.79537
 246 1 -11.7019 6.65941 3.06762
 247 1 5.93818 3.17589 0.111688
 248 1 5.83086 -11.7224 0.974345
 249 1 5.42511 8.81782 9.46431
 250 1 2.03967 8.36295 -8.7781
 251 1 2.87524 -1.01049 10.944
 252 1 6.20142 7.77091 -0.208272
 253 1 -0.940257 -0.0194194 4.43655
 254 1 -4.38359 4.3595 5.26213
 255 1 -0.65207 7.96249 0.147036
 256 1 -0.330352 -5.25798 -6.44487
 257 1 11.6094 -9.28173 9.78697
 258 1 5.38698 -10.9057 -5.18474
 259 1 0.165529 -11.0577 8.11673
 260 1 1.98924 5.93075 0.0517917
 261 1 -10.8613 -9.40485 5.98209
 262 1 6.34914 6.2077 -10.7369
 263 1 5.58395 11.07 2.61086
 264 1 0.533026 -0.171342 -1.93247
 265 1 -3.93941 -8.26103 -8.81692
 266 1 5.06772 4.52239 -2.84249
 267 1 8.23709 -8.96033 -5.14195
 268 1 8.43951 10.4391 1.82294
 269 1 5.74886 0.80963 -8.21802
 270 1 -2.61095 -10.5386 -4.72638
 271 1 -1.25841 -7.50289 -6.57745
 272 1 1.22774 2.86774 -3.1288
 273 1 0.999315 -1.71482 2.20874
 274 1 -4.97402 6.97509 -4.97475
 275 1 11.4992 -5.16815 -5.72498
 276 1 -1.58707 -4.15203 -2.85916
 277 1 3.42721 8.12224 -4.12847
 278 1 10.6718 7.22755 -1.05805
 279 1 -2.88199 -0.822603 -11.7265
 280 1 -1.884 -7.87282 0.636319
 281 1 3.48173 0.115468 5.83579
 282 1 -5.58941 -11.5516 5.00346
 283 1 8.5111 -0.999936 1.86091
 284 1 2.24987 7.46943 10.013
 285 1 -6.36822 0.0894995 -11.7472
 286 1 1.49673 11.0797 3.0949
 287 1 2.39236 0.54224 -1.90782
 288 1 7.86672 -0.477476 -4.49743
 289 1 7.41983 -1.51159 7.27399
 290 1 -1.41006 3.31493 3.67056
 291 1 -2.48914 -1.26656 7.87142
 292 1 -9.86115 -2.10074 6.59379
 293 1 10.7017 1.96025 -1.42146
 294 1 -5.01575 -5.8655 -0.0532383
 295 1 10.7577 2.15844 5.01186
 296 1 10.4268 -1.90475 -3.41623
 297 1 4.28428 6.98857 5.51696
 298 1 -8.37387 10.3725 2.7013
 299 1 -8.35479 7.10408 3.94861
 300 1 -0.573693 -10.5274 5.70848
 301 1 -6.53114 -10.8213 6.86439
 302 1 -4.36875 7.68622 -7.56379
 303 1 -6.36511 11.5565 8.37098
 304 1 -7.42147 -3.05974 2.42874
 305 1 5.02987 2.30584 4.8107
 306 1 6.07993 -7.60458 -2.96096
 307 1 1.21134 2.00698 5.63534
 308 1 -7.65497 10.5472 -6.30524
 309 1 8.93659 -11.8936 1.05129
 310 1 5.83416 -6.46998 9.33131
 311 1 -0.578414 -5.49991 11.6237
 312 1 4.41628 -10.7126 -3.13694
 313 1 -2.18248 -1.89344 -0.536455
 314 1 -3.08817 5.48956 -4.52239
 315 1 6.24482 -3.23017 9.96075
 316 1 -1.1509 3.49762 -2.6028
 317 1 1.48742 3.06822 4.10262
 318 1 0.261736 8.08767 0.140145
 319 1 -5.61093 -5.83939 4.15385
 320 1 -7.02412 -8.24076 -0.00457797
 321 1 4.70322 7.33081 7.46161
 322 1 9.70209 8.15875 11.1615
 323 1 -9.97484 -3.44964 -7.26907
 324 1 -4.08117 0.725474 7.69226
 325 1 10.3247 -0.732894 -3.5607
 326 1 1.02766 -4.30236 4.81981
 327 1 -7.64522 2.94625 -5.20585
 328 1 11.1301 7.7194 -11.2232
 329 1 -8.69313 0.806829 0.814206
 330 1 -6.73538 4.12245 -3.66623
 331 1 -5.22973 2.29321 11.7893
 332 1 3.87695 8.06197 10.0606
 333 1 -3.51677 -1.58558 -11.2816
 334 1 1.52254 1.60003 -10.2469
 335 1 11.6454 -1.3245 -2.40406
 336 1 -0.169734 -7.15788 10.8589
 337 1 -10.0138 -1.65779 -4.56641
 338 1 -0.000799329 -9.78106 2.51538
 339 1 -7.03802 4.8021 -1.04178
 340 1 7.19199 -7.87618 11.0107
 341 1 -8.22089 0.905951 7.62434
 342 1 -3.3866 -1.83419 -6.63028
 343 1 4.57783 -2.82573 7.56938
 344 1 11.0936 1.98686 -2.28858
 345 1 5.06324 -10.3149 -1.41411
 346 1 -8.52512 -3.61203 -6.58722
 347 1 -3.91641 5.2159 5.14607
 348 1 -3.8761 5.58904 9.56566
 349 1 6.3111 11.3239 -0.738357
 350 1 2.76844 4.74475 -6.88434
 351 1 -5.08108 8.44607 -8.56274
 352 1 -8.98695 4.76436 4.39934
 353 1 -7.5327 2.37155 5.28547
 354 1 4.27709 2.21615 -10.8638
 355 1 -1.29301 10.9984 -5.457
 356 1 2.38271 5.04414 7.99399
 357 1 7.02907 -9.0875 -2.51221
 358 1 0.46889 7.36286 -6.29389
 359 1 -7.70315 -6.12334 1.68697
 360 1 -7.68434 -4.46382 -9.53535
 361 1 -2.20733 10.1738 0.782729
 362 1 2.86446 -6.24874 -8.64422
 363 1 3.52942 -4.1533 4.34266
 364 1 -8.42632 -5.43236 -11.9966
 365 1 5.01547 -10.1728 10.7279
 366 1 2.09389 6.77884 6.70553
 367 1 -7.27383 6.1723 -3.62571
 368 1 -0.294566 1.832 11.1676
 369 1 2.82436 0.602879 -1.23401
 370 1 -10.2572 -0.0437993 -9.78185
 371 1 -10.4594 -1.16379 0.883494
 372 1 -6.98721 7.80875 7.90002
 373 1 1.17043 -0.237677 -5.98742
 374 1 4.07307 -4.27294 -5.9459
 375 1 1.84776 10.2618 9.83057
 376 1 0.318763 -10.6538 -8.23018
 377 1 -1.88417 -3.66134 4.96425
 378 1 -6.46213 -1.13764 4.62866
 379 1 0.0466785 -5.48662 3.65821
 380 1 -2.208 -6.09078 3.48241
 381 1 8.73305 -9.25478 5.46678
 382 1 8.68144 -4.63846 5.13227
 383 1 -5.24754 1.69922 5.89529
 384 1 -11.2957 -1.67695 10.1806
 385 1 11.2152 5.29914 0.718686
 386 1 -7.37544 -3.40302 -2.05172
 387 1 2.67511 7.38199 -6.89414
 388 1 -6.58247 -10.6186 -11.5105
 389 1 -3.68263 11.8184 9.96774
 390 1 -1.35352 3.18586 4.8553
 391 1 -8.0558 8.58227 1.30958
 392 1 -10.8578 -2.60291 -6.07759
 393 1 -8.06203 0.508657 5.93153
 394 1 -5.39832 -1.73442 1.66038
 395 1 4.57107 5.0474 9.63096
 396 1 -0.312847 7.05952 -2.4633
 397 1 1.93239 0.612598 0.43234
 398 1 -0.38809 5.13708 4.67392
 399 1 -9.53431 -11.5674 -10.4406
 400 1 9.10124 -6.80018 2.46247
 401 1 -2.95993 8.05337 6.59807
 402 1 3.204 2.16694 7.53353
 403 1 11.2121 5.94436 1.45617
 404 1 6.66055 -5.51132 -2.72395
 405 1 10.9467 3.14997 7.73849
 406 1 7.95992 3.52939 -6.20047
 407 1 -10.0136 -5.96364 3.16612
 408 1 5.61128 8.10077 4.84718
 409 1 7.1804 -2.03905 -5.74256
 410 1 4.5626 -0.658472 -5.10486
 411 1 7.06954 4.49467 -0.674724
 412 1 4.21803 9.45019 -1.93466
 413 1 5.13269 2.45879 -8.46299
 414 1 0.278597 -5.49598 -7.06474
 415 1 -3.57832 4.18053 3.10044
 416 1 3.75357 -4.68682 6.49813
 417 1 5.57108 -4.35223 -6.32895
 418 1 -7.68784 1.69719 9.02561
 419 1 -4.63941 -9.92365 -3.57316
 420 1 9.71092 -1.48505 6.92488
 421 1 4.77028 -8.3959 -0.813877
 422 1 -8.30277 -5.66544 -7.9483
 423 1 5.99416 4.96438 -0.379387
 424 1 -2.30075 8.11154 -3.28042
 425 1 -1.13526 -4.26746 3.52643
 426 1 -3.95215 -5.45037 6.14829
 427 1 4.88394 -8.03333 11.3944
 428 1 -1.31659 -6.50493 6.25
 429 1 -1.69176 -6.82347 -2.32875
 430 1 8.36859 -5.63305 4.92544
 431 1 -4.73044 11.3957 5.7961
 432 1 -5.16553 1.38883 -1.62532
 433 1 -6.32848 8.14559 -5.66283
 434 1 4.09743 0.653573 11.9409
 435 1 -1.40651 7.65023 0.691847
 436 1 1.96309 -0.552298 0.527266
 437 1 -8.68254 10.6999 -7.97135
 438 1 8.93815 9.62356 -0.0848992
 439 1 3.98222 -2.97254 -3.62651
 440 1 7.25342 -10.6474 -4.50802
 441 1 -9.4477 -2.83524 -0.247141
 442 1 7.37854 -7.3945 -7.16334
 443 1 -7.75521 7.9275 -1.39298
 444 1 7.09641 1.72647 -2.59838
 445 1 -6.15182 4.53001 -4.01126
 446 1 -4.71303 -6.32382 -5.25041
 447 1 1.33158 6.24757 -9.65683
 448 1 -10.336 -0.672058 -4.04774
 449 1 -9.40623 2.29554 -1.2599
 450 1 -4.32223 7.98674 9.31871
 451 1 -6.16864 11.549 3.55196
 452 1 -10.6718 -11.9931 3.34541
 453 1 1.61023 1.40668 -11.9381
 454 1 -3.02212 5.02509 6.17241
 455 1 -10.1427 -3.04558 5.63237
 456 1 -8.17875 2.73957 -5.95339
 457 1 -10.504 -8.4432 -0.409906
 458 1 -4.70389 -9.75943 -10.5337
 459 1 -4.35782 -1.5925 -2.19017
 460 1 -8.75815 -2.99147 -9.19528
 461 1 2.1463 -6.69333 1.17445
 462 1 -6.64325 11.7503 4.44105
 463 1 3.16975 7.00855 4.61104
 464 1 9.04091 10.1894 5.47455
 465 1 10.3431 -11.2163 -6.09845
 466 1 7.22192 0.487867 -2.63808
 467 1 -0.231561 -10.0989 -6.36178
 468 1 8.46825 6.74018 9.08878
 469 1 -7.03168 -3.23081 7.10767
 470 1 6.961 -7.23934 -10.4861
 471 1 -0.746547 -7.10527 -0.526863
 472 1 -7.90857 2.01369 -5.54478
 473 1 9.88724 10.9176 1.95314
 474 1 -4.17222 -2.4584 3.77152
 475 1 3.78889 3.24524 4.12205
 476 1 3.5059 9.78983 -8.87422
 477 1 7.1301 10.4168 -8.81028
 478 1 -7.68449 -12.0145 -8.19127
 479 1 4.27887 10.9744 4.05654
 480 1 -3.76058 8.06752 -4.71672
 481 1 0.866376 -11.2426 2.06166
 482 1 3.03359 0.539038 1.94749
 483 1 -8.36439 -10.8033 -3.6693
 484 1 9.82359 -11.3613 10.703
 485 1 0.694734 -7.06166 2.12531
 486 1 11.4148 11.1211 8.2406
 487 1 -2.1756 1.14288 10.0909
 488 1 0.588439 -10.9034 10.6052
 489 1 -5.20199 -0.266672 -8.71972
 490 1 -11.4176 -9.4927 1.80289
 491 1 -0.906944 -7.88716 10.5051
 492 1 -10.1093 6.05792 6.51551
 493 1 -11.2942 -6.78398 -6.45868
 494 1 4.69702 2.65591 -6.49345
 495 1 10.5209 -5.50154 -2.91559
 496 1 -3.75635 1.65163 7.69724
 497 1 -7.34964 -2.95091 -9.4852
 498 1 10.2941 4.19021 7.9972
 499 1 -11.7753 3.53995 11.0123
 500 1 4.45282 -2.49794 3.16869
 501 1 9.42933 -10.6268 10.9284
 502 1 -9.81681 3.1961 -0.989129
 503 1 -8.56778 7.8733 8.55544
 504 1 -9.8016 0.194668 -1.58986
 505 1 -4.16398 -10.1517 3.99787
 506 1 3.1503 -7.44729 4.8024
 507 1 1.90684 3.65171 8.92758
 508 1 3.2971 7.34413 9.32495
 509 1 -0.611022 -0.522662 -3.53435
 510 1 -4.66462 -9.50031 -7.38014
 511 1 11.039 -8.32779 6.92687
 512 1 -2.42288 7.12011 -6.37249
 513 1 9.06334 4.15087 10.1986
 514 1 2.63174 6.18612 -7.16139
 515 1 4.93247 -0.303539 6.17453
 516 1 7.77584 -2.54822 -6.51187
 517 1 -8.0774 -2.28439 -9.39921
 518 1 -3.31601 3.91068 -10.9584
 519 1 -3.19831 2.33831 11.0244
 520 1 -5.27311 6.37138 -6.55769
 521 1 6.53531 -5.84272 -1.03844
 522 1 -11.961 -4.77754 -3.8561
 523 1 0.468908 8.01034 -7.5886
 524 1 10.5844 -11.5933 6.91956
 525 1 -0.648953 0.332916 3.62856
 526 1 8.25782 9.06823 8.74975
 527 1 3.24869 8.11671 8.961
 528 1 9.3371 10.6757 9.6837
 529 1 -2.04628 0.763936 0.454859
 530 1 -0.00804744 8.72484 5.44786
 531 1 6.50765 7.19808 -10.8326
 532 1 -6.25027 7.32558 -6.26896
 533 1 8.52081 -5.66699 6.79772
 534 1 -2.2969 -10.55 -0.12935
 535 1 9.79198 5.26825 -1.12162
 536 1 5.47401 -0.0247284 -5.15417
 537 1 9.58737 0.880354 0.79783
 538 1 -1.10755 -9.34304 7.23287
 539 1 -1.96865 8.55642 4.70475
 540 1 1.90735 -5.21539 5.91406
 541 1 3.69442 0.614737 -1.46865
 542 1 9.28021 -9.89183 4.99983
 543 1 10.9795 -8.23669 9.43812
 544 1 -0.122519 -1.42417 7.11572
 545 1 4.33713 -5.52369 -9.46807
 546 1 -6.29662 5.02737 11.222
 547 1 -10.3966 -1.84003 5.84274
 548 1 -11.3474 11.7869 -5.96825
 549 1 5.37115 10.3253 3.45224
 550 1 -8.869 -2.10715 -0.14175
 551 1 -11.761 -11.6007 -11.8052
 552 1 0.679126 9.31326 -3.79208
 553 1 5.18855 -7.02926 -8.75588
 554 1 6.05253 -4.27151 2.91615
 555 1 -5.73898 0.236826 5.71142
 556 1 -6.09009 -5.54528 -0.450262
 557 1 -4.46171 9.97075 4.6889
 558 1 -9.9641 3.32767 -4.21903
 559 1 7.85448 -8.39293 8.44243
 560 1 -2.16994 -9.21816 -2.32419
 561 1 10.6443 9.9756 11.3791
 562 1 -0.967717 5.55777 -0.206248
 563 1 -10.0715 2.57639 -6.12927
 564 1 -1.16107 -8.34595 6.7607
 565 1 -11.484 4.61073 -5.63978
 566 1 7.41699 -2.80384 10.1528
 567 1 -6.4201 9.50625 9.73636
 568 1 -0.156722 6.14872 10.1866
 569 1 6.0145 4.05756 6.10946
 570 1 10.5231 -1.8709 5.41656
 571 1 -3.73205 5.00355 2.35114
 572 1 -2.43235 7.91059 -11.7897
 573 1 -2.2055 -3.1824 6.53416
 574 1 -9.03302 7.49315 -10.5774
 575 1 0.741561 -10.3488 2.30177
 576 1 -2.29196 1.73004 -4.25252
 577 1 1.9763 -1.958 6.77663
 578 1 11.4959 10.7966 1.14701
 579 1 0.899696 8.07849 -0.858517
 580 1 -4.66702 -5.20185 -4.40834
 581 1 -2.94158 -10.02 0.150408
 582 1 -6.01055 10.0865 5.95572
 583 1 -0.470523 10.123 -8.35835
 584 1 -7.7451 11.7338 4.67376
 585 1 -9.44236 -7.49531 -7.34186
 586 1 2.85642 10.6632 -5.10303
 587 1 3.64372 -1.84989 -6.8529
 588 1 -11.7134 -1.79207 -3.20924
 589 1 10.7664 -10.4254 0.358048
 590 1 -8.4514 2.44536 4.99414
 591 1 3.59933 -8.04224 10.82
 592 1 4.69018 9.48028 10.7434
 593 1 -8.73683 5.60996 -9.52788
 594 1 -1.12732 -5.85142 7.14108
 595 1 6.33841 -2.39241 -9.98827
 596 1 5.357 9.55042 8.88906
 597 1 -8.68932 5.88109 0.876399
 598 1 0.119258 7.92836 9.83448
 599 1 0.976351 -11.6355 9.94697
 600 1 -10.6163 4.1419 -2.65933
 601 1 -11.2434 9.63375 -9.86502
 602 1 6.9538 -3.72266 11.5037
 603 1 6.83175 0.620774 7.93113
 604 1 11.0319 -10.8328 -7.65228
 605 1 -9.34951 7.55872 -6.79281
 606 1 1.59443 2.59423 12.0009
 607 1 10.4383 -4.37406 6.30486
 608 1 8.29865 11.9007 -4.52769
 609 1 7.9807 -0.198682 -3.49733
 610 1 -3.02896 -0.387748 9.79238
 611 1 9.92398 -3.68155 9.1302
 612 1 -10.1395 -8.88421 -4.98486
 613 1 7.54072 -7.59576 8.73582
 614 1 7.15567 -2.9202 -10.0866
 615 1 1.04042 -6.36714 8.82094
 616 1 -7.3925 -10.1518 -5.39373
 617 1 -6.6836 11.6934 -10.6026
 618 1 5.83356 -5.24146 10.9195
 619 1 -3.32977 -9.87987 1.01096
 620 1 -10.0887 0.502055 8.00836
 621 1 -7.85105 -9.71335 -11.6592
 622 1 0.838266 -0.523306 9.14566
 623 1 3.36092 11.5779 6.62715
 624 1 -0.987208 -1.69896 5.17478
 625 1 -3.62428 -3.87303 -0.726304
 626 1 3.84288 10.3269 -2.34941
 627 1 -9.91116 2.2091 8.17833
 628 1 -8.21186 2.65877 11.0722
 629 1 -7.24793 11.7711 9.96175
 630 1 -9.68068 9.77077 -7.05752
 631 1 4.43021 10.4628 -11.2552
 632 1 -6.97935 -6.97109 5.02984
 633 1 -3.76095 0.922376 1.69659
 634 1 0.791046 -2.17314 -6.97855
 635 1 -1.40788 11.8797 4.84949
 636 1 -2.2234 -0.518337 -1.73188
 637 1 2.21161 11.1586 6.86767
 638 1 2.9246 2.78451 -3.09957
 639 1 6.18886 -4.56437 9.52324
 640 1 -2.25207 -3.94387 -11.9372
 641 1 -0.781294 1.11784 1.77255
 642 1 7.49605 -3.68639 -6.41751
 643 1 11.5277 -5.92083 2.51431
 644 1 -11.7379 -4.30701 0.715604
 645 1 -1.79844 -2.20198 9.01459
 646 1 -10.3006 3.73279 -0.57321
 647 1 3.14984 -9.19033 5.80836
 648 1 -1.20036 3.81824 10.4458
 649 1 -1.99602 -3.93744 7.18793
 650 1 10.5305 -5.2174 -10.0993
 651 1 -3.29903 4.6974 -6.14773
 652 1 -7.54997 -8.12174 2.83179
 653 1 1.39367 -0.145884 -11.2362
 654 1 -0.962343 1.33059 -2.93527
 655 1 -1.40407 5.92736 -11.0376
 656 1 0.598987 6.09572 -8.80365
 657 1 -9.88526 -0.98301 -7.52589
 658 1 -11.4696 1.11134 -1.3633
 659 1 10.2916 6.92249 10.7176
 660 1 -0.96526 -3.85882 2.22881
 661 1 -6.99849 -9.22889 0.602864
 662 1 9.20435 -8.87026 -10.9092
 663 1 -6.28224 -5.75092 -7.70778
 664 1 11.9386 -10.8612 8.08199
 665 1 4.33481 1.40224 -11.5837
 666 1 6.02942 9.12984 5.03038
 667 1 11.653 -11.6746 8.61549
 668 1 -7.55259 -3.25112 -7.33128
 669 1 -9.13162 8.15353 -2.2697
 670 1 3.6064 -6.40643 -4.6693
 671 1 3.64539 -9.68239 -4.80459
 672 1 -1.66324 -3.20808 -9.06596
 673 1 -1.06264 -3.44138 5.38319
 674 1 -10.015 4.56871 9.21638
 675 1 5.32819 -10.3983 2.45901
 676 1 8.56851 -1.04584 -6.45583
 677 1 -11.4134 11.6972 10.9785
 678 1 -10.6046 6.02147 -5.73189
 679 1 1.67332 9.66374 4.35485
 680 1 6.6201 1.29695 7.25586
 681 1 2.06753 10.9249 -10.2128
 682 1 9.37512 -6.79542 1.21585
 683 1 9.62623 -5.70674 -2.03571
 684 1 -1.46526 -6.00069 8.17216
 685 1 9.91494 -4.95336 0.859376
 686 1 -2.69977 -7.02522 -11.498
 687 1 5.11675 7.73069 6.65994
 688 1 -8.33101 5.46485 7.29894
 689 1 4.74232 -10.9235 5.99631
 690 1 3.88764 1.09438 9.75208
 691 1 1.52597 2.34578 10.1778
 692 1 3.09856 -0.255487 8.01888
 693 1 8.10712 0.306854 4.81838
 694 1 3.22129 -11.7346 -0.168878
 695 1 -6.2323 5.50565 -6.76789
 696 1 -1.99274 7.07171 -0.697868
 697 1 6.97056 6.3541 3.06264
 698 1 11.2056 4.69932 -11.0291
 699 1 1.01412 -0.504208 -0.533954
 700 1 5.8628 -10.7513 -6.29207
 701 1 6.05113 -4.73474 3.90044
 702 1 1.60654 -9.91739 -1.69903
 703 1 8.04348 -10.0128 -0.0859169
 704 1 8.73279 7.22633 -2.57487
 705 1 9.16228 8.48501 -0.733646
 706 1 8.39312 -9.84702 0.907306
 707 1 -1.51758 -6.06345 -0.090409
 708 1 8.25312 -11.095 -4.4211
 709 1 -10.3113 -9.09878 3.80904
 710 1 -6.41394 4.36757 -10.107
 711 1 -5.05777 -4.36072 3.22475
 712 1 2.4123 -6.95961 4.5561
 713 1 11.3476 -2.54331 1.03229
 714 1 -0.556019 4.54805 -11.0575
 715 1 4.90664 -3.60619 -11.6814
 716 1 9.49735 12.0406 3.94164
 717 1 4.45069 1.03143 0.074099
 718 1 -10.3392 -10.2612 -5.72506
 719 1 -7.73015 -1.87337 -4.75315
 720 1 10.4874 7.49404 -4.93326
 721 1 3.89763 -9.62625 11.9995
 722 1 -6.98031 -0.142591 -6.34344
 723 1 10.5017 4.86962 -1.65406
 724 1 -0.230074 -2.38498 -10.2154
 725 1 -5.57836 7.55468 -5.27455
 726 1 10.9856 4.43733 -9.94468
 727 1 -1.16049 10.7972 -4.43697
 728 1 -1.91333 -11.1561 -5.24275
 729 1 7.24296 11.3611 -8.99835
 730 1 7.0847 8.71065 3.57377
 731 1 -8.53442 9.95588 11.4083
 732 1 -2.12924 -7.78252 8.08637
 733 1 -0.769676 7.50195 -11.2834
 734 1 10.7362 9.69469 5.52528
 735 1 -11.7975 -8.55455 -4.86532
 736 1 -6.81334 -9.20875 -11.7011
 737 1 -1.43784 12.0314 9.64468
 738 1 -8.28286 -8.61363 -5.20725
 739 1 2.58352 -1.87321 1.48536
 740 1 4.38905 10.109 3.92553
 741 1 -0.810598 11.3363 -6.61892
 742 1 7.84856 11.4093 5.07925
 743 1 -11.1153 11.4695 -1.25305
 744 1 -9.39482 0.29323 1.42339
 745 1 -9.23823 -10.6823 -11.2906
 746 1 4.0971 -11.5721 11.6217
 747 1 -5.39503 1.86743 2.61926
 748 1 -9.00433 -6.73871 -8.7186
 749 1 -11.7705 -9.71709 10.0122
 750 1 0.661693 10.5346 0.999105
 751 1 6.79515 -3.33237 5.40404
 752 1 12.0163 -4.15409 -9.79272
 753 1 -3.42586 -10.6736 -5.0747
 754 1 11.5039 10.1199 -11.8123
 755 1 4.25042 10.2802 -1.39538
 756 1 5.40974 0.0121332 2.91137
 757 1 -12.0049 8.5989 4.65293
 758 1 -6.87779 -8.56387 -0.902009
 759 1 9.95299 -2.22508 9.11713
 760 1 -7.17833 -4.70803 5.43582
 761 1 -2.84185 7.44742 -3.00852
 762 1 -2.19277 9.93765 -10.1022
 763 1 -6.47727 0.196149 6.26631
 764 1 -1.63112 3.12842 -12.0463
 765 1 -2.85458 1.49535 -0.90606
 766 1 -9.42365 -6.94885 -11.8868
 767 1 8.00221 -2.46099 7.8884
 768 1 3.74385 -0.665377 3.39186
 769 1 5.71133 8.96878 -5.27695
 770 1 5.35457 9.45913 0.969622
 771 1 2.55448 -8.97693 -5.01226
 772 1 -5.22081 11.8199 -5.50402
 773 1 1.49614 3.43927 7.96824
 774 1 5.06629 3.4779 2.70691
 775 1 0.338164 2.1069 10.2165
 776 1 6.92979 10.0186 3.22198
 777 1 6.47461 -8.11419 3.36082
 778 1 -6.28895 1.25212 6.20491
 779 1 8.42219 -5.50068 -6.30309
 780 1 4.31788 -8.21323 10.3111
 781 1 -4.78184 -5.94222 1.09288
 782 1 10.2357 5.57222 1.52029
 783 1 -6.30931 -9.94156 -6.23108
 784 1 -5.01799 -9.25292 -5.79861
 785 1 6.13998 10.2195 11.3997
 786 1 -1.03376 0.48483 -3.51586
 787 1 5.14035 2.05182 -1.44393
 788 1 -8.15514 -1.23381 -2.105
 789 1 -10.6046 9.17889 3.41993
 790 1 -2.14228 -8.3827 10.6575
 791 1 10.2775 -9.42067 2.14802
 792 1 -4.45731 7.88764 8.26939
 793 1 -3.4714 -0.174639 -1.49274
 794 1 5.15037 1.02419 2.69535
 795 1 -2.12373 -10.0969 10.6287
 796 1 7.61709 1.74548 -9.14496
 797 1 9.28459 0.16101 -0.949924
 798 1 6.10531 -0.776219 -2.49764
 799 1 11.9444 -1.16642 -6.97834
 800 1 7.37887 8.07892 -2.55588
 801 1 -11.423 6.4328 -10.3848
 802 1 2.54425 -10.5161 -11.8407
 803 1 -4.53867 -3.38213 -10.1696
 804 1 -9.63198 -4.57559 -4.2118
 805 1 0.0774223 -3.45174 -10.647
 806 1 -8.44779 6.24298 4.59044
 807 1 6.77803 -0.107741 -1.91244
 808 1 10.8679 6.96113 -5.92155
 809 1 5.25375 -7.90558 -4.61689
 810 1 -10.0685 -3.04754 -11.0227
 811 1 -2.22483 -2.05665 6.77639
 812 1 -1.97858 6.75142 -8.95655
 813 1 -9.62432 5.0165 5.54945
 814 1 -6.52464 8.92663 -4.42566
 815 1 -4.76559 2.22235 4.42985
 816 1 2.18069 -1.92038 2.64362
 817 1 0.441904 -1.72354 -0.908883
 818 1 -8.32452 -9.41932 -6.19292
 819 1 -6.96844 5.33311 -8.2464
 820 1 8.25445 -7.76095 -4.2822
 821 1 -2.1785 3.04719 -9.96421
 822 1 -11.2567 -10.5372 0.156591
 823 1 9.45521 -11.1023 -5.7295
 824 1 8.29375 8.89117 -0.323744
 825 1 -0.560374 -11.369 5.16526
 826 1 -8.75968 10.7891 10.6681
 827 1 -8.84718 -8.7271 2.8512
 828 1 11.9966 -1.02915 -7.91419
 829 1 -11.4512 10.1376 0.830344
 830 1 4.78972 3.09085 -5.13288
 831 1 -5.44884 10.2577 -0.0714025
 832 1 -4.21823 3.33178 3.01262
 833 1 0.333955 1.78944 5.23225
 834 1 5.67305 8.08615 -5.67082
 835 1 -2.57034 2.53838 -4.36759
 836 1 11.1211 -6.01244 10.7686
 837 1 2.88443 1.04936 2.74019
 838 1 -0.765118 -0.628535 -1.43917
 839 1 1.87145 5.21444 8.67668
 840 1 5.82401 3.51558 2.36625
 841 1 0.196525 -7.32235 3.80474
 842 1 -12.026 -5.2481 -6.43103
 843 1 -0.356529 -3.68301 6.09034
 844 1 9.17974 8.34078 2.22149
 845 1 5.5362 6.11854 -2.70272
 846 1 -4.65103 -11.8953 5.5601
 847 1 3.61369 1.37738 -10.9729
 848 1 7.39395 6.09233 -0.0653442
 849 1 2.27882 -1.38102 0.67676
 850 1 -4.12322 4.77054 11.4383
 851 1 -9.2698 7.12602 -11.4179
 852 1 -1.44922 -9.01239 6.01189
 853 1 6.99589 -2.48229 3.73335
 854 1 4.29218 -2.55751 11.7769
 855 1 -7.92425 5.59715 6.58271
 856 1 3.45762 -3.09606 -2.5629
 857 1 -4.43016 6.41731 -2.91562
 858 1 -6.42547 4.17461 -9.25136
 859 1 11.2115 5.47682 10.3474
 860 1 -1.61062 1.61256 6.61804
 861 1 10.6019 1.27804 0.813843
 862 1 -6.98727 2.35451 8.75146
 863 1 0.182091 -0.523124 -6.02986
 864 1 1.6317 10.028 1.09627
 865 1 -8.7172 9.24339 -6.56497
 866 1 -7.35467 -10.5503 6.86061
 867 1 7.25111 -5.6689 2.96872
 868 1 7.54758 8.98462 -11.2092
 869 1 -10.8172 8.41061 3.79037
 870 1 -5.02037 -6.29714 4.66334
 871 1 10.4926 3.97928 -11.0616
 872 1 -5.09374 -1.93989 11.4697
 873 1 -11.8025 6.24306 -3.78466
 874 1 -5.85838 8.74167 9.24787
 875 1 2.80767 -1.96662 -6.3228
 876 1 -8.80172 10.2817 9.30931
 877 1 10.9012 -7.86058 0.879798
 878 1 4.94714 -6.59967 8.99147
 879 1 -1.69156 -5.39803 10.6109
 880 1 11.8095 -1.38525 -8.88204
 881 1 -6.25255 3.5072 -8.5983
 882 1 -3.59422 -4.61482 -5.86071
 883 1 7.52945 1.55751 -8.24482
 884 1 6.57578 -2.64194 4.55361
 885 1 7.30352 -2.93817 -11.9484
 886 1 6.98627 11.7332 -5.91578
 887 1 0.19275 11.2936 -6.48941
 888 1 -9.9788 -10.6791 2.2127
 889 1 11.449 8.29536 1.58782
 890 1 -5.09998 -8.21338 10.8012
 891 1 -6.10617 -0.533464 0.483002
 892 1 -8.26095 -11.4685 -7.26215
 893 1 5.29448 -3.54173 -2.1494
 894 1 -3.213 9.74907 6.84035
 895 1 4.78303 11.1509 -8.51329
 896 1 -3.78057 6.04211 10.2913
 897 1 -9.63449 0.857696 7.34595
 898 1 3.16181 9.26004 6.14447
 899 1 -10.1983 10.9938 -1.4634
 900 1 -4.83231 6.16067 -7.71963
 901 1 -0.0485494 -2.04535 3.40301
 902 1 4.71641 -0.213214 11.7639
 903 1 7.04984 7.82628 2.63783
 904 1 4.61335 -9.45171 6.82038
 905 1 3.11932 2.78428 6.83509
 906 1 -4.82659 -7.5028 -9.16871
 907 1 2.69408 9.44594 5.43761
 908 1 -5.10895 -4.44084 7.38863
 909 1 -8.00292 -5.17096 11.2202
 910 1 -11.9386 2.19952 -8.58132
 911 1 2.07864 1.31441 -8.34382
 912 1 2.36231 -3.48576 -7.73243
 913 1 8.77052 0.148465 8.7335
 914 1 7.29328 -0.951525 -6.03526
 915 1 -8.82301 10.5307 8.4488
 916 1 5.43285 0.233268 9.54341
 917 1 -0.503168 11.9997 -9.41453
 918 1 4.7263 9.40496 3.85919
 919 1 6.78895 3.48907 2.01822
 920 1 -7.18857 1.8911 -3.52838
 921 1 -8.08922 -2.67423 10.0676
 922 1 5.78026 3.41826 -7.0102
 923 1 10.7665 7.46454 -8.06233