ITEM: TIMESTEP
0
ITEM: NUMBER OF ATOMS
13824
ITEM: BOX BOUNDS pp pp pp
-11.5566 11.5562
-11.5567 11.556
-11.5555 11.5572
ITEM: ATOMS id type xu yu zu
 1 1 -7.83321 8.80746 -4.2852
 2 1 -2.22282 0.103057 9.29001
 3 1 3.10242 -9.97181 -1.53524
 4 1 7.75997 4.25334 1.54623
 5 1 -3.90919 8.40338 8.15601
 6 1 1.24737 -8.57049 1.52022
 7 1 6.66847 -6.49339 -7.5159
 8 1 -10.1636 -10.4822 0.139999
 9 1 -6.50558 -5.81322 -6.74437
 10 1 -5.25115 10.5926 -6.477
 11 1 5.22576 10.8422 0.33235
 12 1 -2.8889 1.01383 0.54623
 13 1 -11.0685 -11.3444 10.2371
 14 1 -6.28138 -4.1163 -1.12815
 15 1 8.89689 3.47301 -5.48109
 16 1 -7.5205 11.3816 1.25556
 17 1 5.54163 -11.0648 8.12762
 18 1 -10.5117 2.47519 -4.2499
 19 1 -3.33926 11.0693 2.48646
 20 1 9.54625 -4.61972 -4.67165
 21 1 10.2064 9.03465 4.03476
 22 1 4.44089 11.279 3.23195
 23 1 1.17817 5.55216 -4.53188
 24 1 4.44069 5.34327 10.7223
 25 1 -4.25282 -7.11496 -6.66331
 26 1 5.62724 -10.2726 6.36955
 27 1 2.48657 10.71 -4.21085
 28 1 -6.43373 4.03875 -8.70548
 29 1 -4.27559 -0.479684 8.05754
 30 1 -10.3615 -2.17467 -3.53772
 31 1 -6.25923 -1.68484 11.3853
 32 1 -3.53336 -5.48601 -1.05042
 33 1 4.16034 0.600604 9.56637
 34 1 -10.7394 -2.47337 -2.83317
 35 1 -1.22811 -7.42186 3.54732
 36 1 2.77381 8.90642 -6.6096
 37 1 -11.1021 -0.996521 -9.7956
 38 1 -9.60838 6.00285 9.6895
 39 1 8.83482 -10.3676 1.97397
 40 1 -8.94648 10.5656 -7.96463
 41 1 9.49624 -0.618857 8.06216
 42 1 -8.82598 4.56 -8.09077
 43 1 -10.6353 -7.28687 -2.86506
 44 1 -6.67241 0.588295 -11.0178
 45 1 10.67 -2.79161 -11.117
 46 1 -9.45547 -10.1439 5.41757
 47 1 8.30317 -9.08471 7.49903
 48 1 -0.0231197 -10.6618 -4.11832
 49 1 3.45698 5.92332 9.63003
 50 1 -4.35165 9.26126 3.34074
 51 1 -1.5192 9.02376 -5.29976
 52 1 1.6199 -4.05522 3.93065
 53 1 9.45226 4.6935 -2.98546
 54 1 -3.17117 7.60993 2.63516
 55 1 9.94863 -11.477 11.0954
 56 1 -6.14069 -1.32219 7.20692
 57 1 -3.51367 -7.02375 -4.10032
 58 1 -2.28257 1.81537 7.4163
 59 1 2.92865 8.37438 -0.907051
 60 1 7.77844 6.04714 -2.91063
 61 1 -11.0899 -5.24139 9.61818
 62 1 5.38425 0.964055 8.09698
 63 1 -2.27474 -8.37062 -8.83659
 64 1 5.97209 -8.55086 3.45284
 65 1 -5.39557 -11.5479 8.6438
 66 1 9.36013 -10.9723 -7.48574
 67 1 -10.6718 -4.38596 -7.37808
 68 1 4.41996 5.12603 6.20202
 69 1 5.77674 6.00568 8.91264
 70 1 -7.1523 9.24763 -6.69998
 71 1 -7.57826 5.62181 7.7507
 72 1 4.75413 6.48823 0.833268
 73 1 9.9733 4.02148 -9.64308
 74 1 7.12191 -9.23193 10.6163
 75 1 10.5129 -11.5301 8.43741
 76 1 2.07935 -10.6951 -5.44528
 77 1 -0.722798 5.18526 5.99359
 78 1 8.77391 -7.36932 -1.79044
 79 1 4.07832 -7.39974 5.44041
 80 1 -3.90207 9.00466 -3.75861
 81 1 -1.02877 5.58907 -2.19603
 82 1 -0.150101 -6.09209 -11.0389
 83 1 1.51975 -2.10687 -0.455347
 84 1 7.13297 -11.0751 0.863969
 85 1 -2.98518 9.86218 0.253728
 86 1 1.77503 -7.34347 9.13501
 87 1 0.772458 2.43694 -9.74847
 88 1 10.4593 1.69425 10.4413
 89 1 -2.26464 -10.3602 4.39241
 90 1 -1.64225 3.52428 1.37516
 91 1 -5.7979 2.81296 0.825114
 92 1 -7.73634 2.77975 -2.80022
 93 1 5.02566 -4.95513 3.36198
 94 1 2.02141 4.02762 -9.8619
 95 1 -9.93979 -10.3993 -9.29011
 96 1 8.08609 4.54269 10.9598
 97 1 5.62242 2.63725 -2.50431
 98 1 -8.9913 3.53221 -11.3777
 99 1 -7.24363 8.67446 0.123076
 100 1 -10.2103 5.32415 9.47236
 101 1 7.97978 0.686217 8.98007
 102 1 6.25123 4.56672 -11.0302
 103 1 -2.97329 -1.97279 -4.24667
 104 1 9.04449 5.52601 -5.23346
 105 1 -1.82912 4.56071 -8.36794
 106 1 -5.15287 2.46477 4.88896
 107 1 5.94695 -5.7612 -11.2607
 108 1 -7.13517 -3.39814 5.81855
 109 1 -10.5057 -9.55111 8.27152
 110 1 -5.05872 2.56049 -7.65797
 111 1 -8.08569 -8.74305 -4.01491
 112 1 0.878454 -10.2165 6.54789
 113 1 -0.479913 7.42452 11.171
 114 1 1.18338 10.8554 7.29833
 115 1 -3.55742 -4.66824 1.55754
 116 1 3.49691 -9.41765 6.55062
 117 1 -0.289613 -8.02584 -4.09949
 118 1 -9.15315 4.68819 -3.7242
 119 1 3.75863 10.3596 -1.74925
 120 1 7.15595 -2.89319 -5.79917
 121 1 -8.15195 -3.01893 -10.8816
 122 1 4.37178 0.782596 -10.3467
 123 1 11.088 -5.58586 -9.77654
 124 1 1.99816 -0.00268812 -6.88432
 125 1 5.98431 -7.10119 -2.96245
 126 1 -0.374667 -4.3375 6.74189
 127 1 3.15707 -7.02965 4.27378
 128 1 -9.96402 3.9411 -6.31276
 129 1 7.8401 -11.0189 -11.1206
 130 1 -3.18183 5.08528 11.4083
 131 1 7.64107 -4.81311 -6.45791
 132 1 2.9842 -8.08613 -5.12618
 133 1 0.199429 -3.03615 3.6009
 134 1 1.30491 -0.465769 5.62607
 135 1 -10.0039 7.69366 -10.7128
 136 1 8.99086 10.5239 -8.83521
 137 1 -11.1157 5.82301 10.6287
 138 1 7.92901 11.1705 -8.71293
 139 1 -11.4364 2.7395 -8.99403
 140 1 -9.58345 1.42277 -8.28983
 141 1 -9.15362 2.37186 1.42888
 142 1 -5.27305 -10.7097 -3.65212
 143 1 -9.27188 -10.7047 2.15305
 144 1 7.09939 4.47375 2.1102
 145 1 3.27915 -9.21317 -2.12078
 146 1 -2.24567 -10.6307 -4.13743
 147 1 1.63106 11.4459 0.238639
 148 1 -5.41113 6.11087 -6.60482
 149 1 -6.63617 4.04095 -3.06701
 150 1 -1.16909 -1.31878 -9.45355
 151 1 -1.40895 1.72369 -9.21932
 152 1 -3.57556 6.47389 -7.83295
 153 1 7.02558 -7.971 6.02879
 154 1 -2.84635 2.60684 0.999276
 155 1 -10.3359 4.54495 -10.3345
 156 1 0.282563 5.43803 0.267201
 157 1 4.79718 -3.68243 -10.8727
 158 1 7.38292 6.95614 -3.29815
 159 1 6.20299 -11.4876 4.27194
 160 1 -5.75944 -4.13068 -3.085
 161 1 8.87117 -5.88833 2.50966
 162 1 10.7934 -1.76787 -0.339823
 163 1 -1.04045 -2.87948 1.74839
 164 1 -7.92304 -2.9874 9.06613
 165 1 7.38388 -9.6391 -0.703049
 166 1 4.57091 -1.45962 11.4689
 167 1 -3.33853 3.61933 9.74311
 168 1 0.791104 -2.51055 7.6852
 169 1 -6.19501 1.30906 -6.3731
 170 1 -5.12578 5.19189 -0.629473
 171 1 10.8876 -0.870421 -2.75588
 172 1 -5.86544 -5.68309 -8.44518
 173 1 9.62025 -2.92054 2.94074
 174 1 -4.76787 7.21898 -2.56325
 175 1 -4.45656 9.27329 8.11052
 176 1 9.52878 -3.98386 8.17492
 177 1 1.79367 -11.0672 4.45463
 178 1 -3.59945 -0.520488 11.1138
 179 1 11.5307 -2.08583 1.90057
 180 1 6.28166 1.4714 -0.925783
 181 1 -7.99763 -2.55783 9.87107
 182 1 -1.5114 6.96957 -6.46685
 183 1 -9.31203 6.57923 4.36606
 184 1 -1.95539 5.84404 2.68446
 185 1 8.58887 -2.41643 9.63462
 186 1 -0.999278 10.9328 -5.29977
 187 1 -7.64012 7.85248 -7.47593
 188 1 6.28582 -9.2646 10.1355
 189 1 -4.42585 -1.93443 -9.73914
 190 1 2.41494 -3.24848 -2.49541
 191 1 4.82325 -4.66208 9.97783
 192 1 0.737663 -8.62047 0.924351
 193 1 6.22947 11.3359 -2.19126
 194 1 -8.05864 -6.63533 0.406983
 195 1 3.06293 4.50238 0.622118
 196 1 -3.81712 -7.41452 6.79623
 197 1 5.72559 6.83691 7.57286
 198 1 -2.37688 4.84681 -0.657246
 199 1 -4.85865 7.56856 -1.8265
 200 1 -2.70271 4.25057 -8.9284
 201 1 -11.4045 -0.807715 -4.95948
 202 1 -9.8434 6.70153 -10.9157
 203 1 1.46476 2.51896 2.12084
 204 1 -3.88463 -5.23387 6.57715
 205 1 -5.92247 8.15875 1.11938
 206 1 7.96816 -8.35343 -7.05568
 207 1 -6.84421 -10.1121 5.18169
 208 1 -6.24429 9.28254 7.65907
 209 1 0.0871061 3.59728 2.19844
 210 1 -0.596202 -3.08986 -3.90148
 211 1 -4.51193 2.92579 0.106997
 212 1 -7.32092 5.92258 11.2112
 213 1 -4.28426 -9.12797 10.789
 214 1 1.33102 5.64842 -5.4086
 215 1 -6.1263 7.09162 -3.66522
 216 1 -8.20334 8.51628 -11.3372
 217 1 -7.91584 8.66106 -8.90351
 218 1 -2.55825 8.40269 4.09074
 219 1 -7.36604 -3.07944 0.933398
 220 1 -10.5847 6.7913 2.35325
 221 1 5.99224 -7.75064 -9.89381
 222 1 0.416912 -10.3693 2.54652
 223 1 5.19119 10.8099 10.1946
 224 1 -11.1907 10.7469 -8.16191
 225 1 -5.2585 -1.61016 2.43083
 226 1 -5.25764 0.740367 0.721876
 227 1 9.98193 -4.08994 5.7302
 228 1 -4.40354 7.35089 -0.91735
 229 1 -3.80488 6.3845 1.76011
 230 1 3.43669 -7.40991 -4.84578
 231 1 -1.47944 4.89718 5.65246
 232 1 -7.8371 1.63868 -0.42258
 233 1 -10.0384 -6.17977 3.26382
 234 1 -10.8568 -1.29891 -0.819853
 235 1 -5.90803 -5.02458 1.73337
 236 1 5.43288 3.61369 -5.46089
 237 1 7.55147 -5.5925 4.5055
 238 1 -4.76888 -6.91056 0.583369
 239 1 3.97061 8.61527 2.33688
 240 1 -10.1057 -3.76938 4.5825
 241 1 7.97949 -0.0407967 -8.33255
 242 1 -7.85825 -5.60154 4.54552
 243 1 -3.6419 7.03066 2.27543
 244 1 -8.89192 -8.13035 -9.83539
 245 1 -6.2022 0.577538 11.3648
 246 1 1.33737 -10.6651 -9.78939
 247 1 9.14801 -2.61457 -6.05759
 248 1 -0.334241 -3.66379 -1.25716
 249 1 -1.91257 9.96387 10.7802
 250 1 9.36926 0.566655 -10.0074
 251 1 -8.1009 -10.1303 10.9559
 252 1 2.36566 -6.65416 4.38909
 253 1 10.1911 4.60028 10.2579
 254 1 10.4238 0.112254 -3.22428
 255 1 -10.8671 9.45191 3.08102
 256 1 -9.39267 10.3761 -9.57394
 257 1 5.69884 7.66752 10.1307
 258 1 -7.0412 10.9916 9.02557
 259 1 -10.8397 -4.66191 2.09431
 260 1 7.5873 6.68647 9.87572
 261 1 -2.2894 -1.02621 4.98129
 262 1 1.71365 -3.74357 -0.516929
 263 1 10.2971 3.1967 -11.0709
 264 1 9.91502 -7.68294 -4.89838
 265 1 -11.541 3.66347 -4.87248
 266 1 3.74805 9.6497 -2.49006
 267 1 -8.32891 4.86089 -4.43262
 268 1 0.661486 10.8472 9.33828
 269 1 11.2506 -7.53977 -2.32039
 270 1 5.58947 1.17213 7.24281
 271 1 -4.73786 0.641749 1.35033
 272 1 6.4745 -6.07409 2.13117
 273 1 8.75193 3.70164 -6.48564
 274 1 5.07442 6.53492 6.96722
 275 1 1.2807 -3.02472 5.69102
 276 1 -7.45303 2.99267 3.26444
 277 1 1.73647 -5.13554 -11.1158
 278 1 -10.1631 -3.58982 5.38957
 279 1 -0.611634 10.3403 -0.470275
 280 1 4.60407 -10.7297 -8.9721
 281 1 -8.82513 -8.0052 9.54544
 282 1 2.62048 1.72495 6.55624
 283 1 2.57309 2.53114 4.53939
 284 1 11.4347 -4.24631 3.8998
 285 1 -10.9179 -6.29787 -8.66041
 286 1 3.72389 -6.08463 -10.5079
 287 1 -9.84078 -0.0588198 7.9161
 288 1 3.65245 -10.2571 4.97056
 289 1 7.46014 3.82509 -2.30319
 290 1 8.62182 3.61897 2.00819
 291 1 2.68875 -5.42801 5.81201
 292 1 -2.58074 3.33921 9.60525
 293 1 -5.12382 11.1723 1.36124
 294 1 9.24991 1.14603 -5.80242
 295 1 7.81269 8.76853 4.2189
 296 1 -4.5856 -0.680073 -1.90867
 297 1 5.96664 -4.68054 3.45494
 298 1 10.3113 9.30726 4.88932
 299 1 -11.2621 5.04044 -8.46086
 300 1 5.07151 9.49518 -1.72292
 301 1 4.70553 -2.80109 4.77522
 302 1 9.32584 -10.2709 -2.44299
 303 1 -8.87887 9.20315 7.73379
 304 1 -8.27318 -6.64246 -1.41063
 305 1 8.81398 -3.84408 8.16266
 306 1 1.65807 1.53288 -1.07755
 307 1 11.4159 2.23906 -9.52331
 308 1 4.49808 1.53343 11.4153
 309 1 10.5244 -5.46617 8.11948
 310 1 -1.41328 -7.21099 -5.33267
 311 1 -1.63502 -0.484644 -9.68006
 312 1 -8.21455 0.0629765 10.7237
 313 1 0.824937 9.8176 -6.14189
 314 1 -10.3592 0.49788 -3.35077
 315 1 -2.74064 1.84132 0.686165
 316 1 11.3984 7.64126 -2.92616
 317 1 9.55594 -9.78931 5.15639
 318 1 9.69519 3.57123 -3.07797
 319 1 2.70344 6.64335 2.43763
 320 1 7.80811 -1.32252 6.30561
 321 1 6.23148 -5.51564 -9.52701
 322 1 10.2652 5.98276 0.845132
 323 1 7.05691 -9.74272 11.4355
 324 1 8.37801 11.5293 -4.17127
 325 1 -8.67459 7.57784 5.9081
 326 1 -0.309012 6.98994 -10.0072
 327 1 6.35848 -7.43988 -1.27279
 328 1 -0.338288 9.59598 8.55129
 329 1 8.74934 -5.8215 -10.4457
 330 1 2.35352 -4.49389 3.65008
 331 1 -0.575841 3.48301 -5.37104
 332 1 -3.36223 -7.4214 7.6745
 333 1 -8.50647 8.58883 3.54803
 334 1 -8.34156 9.74067 0.949455
 335 1 10.783 -6.28588 3.65167
 336 1 -3.85585 -4.86494 2.23793
 337 1 -11.2365 10.9046 -5.75739
 338 1 -5.13747 3.91775 -5.57348
 339 1 11.061 3.95976 9.92683
 340 1 1.51419 1.00459 0.683602
 341 1 3.90765 -5.52751 -11.0034
 342 1 4.04853 -0.128938 6.82091
 343 1 -8.35514 0.483218 -6.24804
 344 1 -0.990755 4.70701 8.00687
 345 1 -3.92451 -2.90085 7.72614
 346 1 7.44064 -9.18662 7.91428
 347 1 7.59177 11.3851 0.886961
 348 1 -3.39569 0.492697 5.31476
 349 1 9.351 3.50254 1.63235
 350 1 7.18459 -0.81061 5.9133
 351 1 -6.40848 -6.02607 -0.960342
 352 1 -6.50461 0.581127 4.12195
 353 1 9.08236 -6.71494 5.60166
 354 1 6.99326 4.05111 4.83239
 355 1 -10.7098 9.15428 -2.41648
 356 1 10.3809 -7.85072 -2.4976
 357 1 -8.67182 -6.76135 1.23522
 358 1 3.98475 5.89233 10.3638
 359 1 -3.74748 11.1901 -5.14044
 360 1 -1.22997 1.65182 -2.64162
 361 1 -4.63827 8.97756 -9.09548
 362 1 7.2569 -8.26546 5.24207
 363 1 -1.91856 5.63869 9.74884
 364 1 10.7137 0.656998 -1.34481
 365 1 10.9891 -3.07949 -4.64645
 366 1 -0.572231 2.93948 4.14874
 367 1 -1.75279 8.32305 -5.63805
 368 1 4.85769 -1.11971 -10.9374
 369 1 -4.35356 0.396154 2.21191
 370 1 11.5527 6.28698 -9.48243
 371 1 2.95001 1.79757 -5.092
 372 1 7.72601 11.0449 -0.983199
 373 1 -6.67709 0.334677 3.47503
 374 1 4.17034 9.88249 7.58935
 375 1 8.25113 -6.42204 -4.98946
 376 1 -6.24831 2.93316 -1.27309
 377 1 -6.97166 -3.63498 -4.85645
 378 1 0.642695 1.75247 -4.87011
 379 1 -3.07321 -4.52975 8.94505
 380 1 -7.10508 -1.82133 10.87
 381 1 2.47734 -6.06014 9.91458
 382 1 -10.1133 2.26345 6.64307
 383 1 6.01148 6.64354 -5.03223
 384 1 6.33197 -7.56044 -2.06746
 385 1 0.501104 5.75969 1.10299
 386 1 10.158 5.62873 6.52403
 387 1 4.85842 2.02189 -3.9354
 388 1 -7.18159 11.4733 6.56661
 389 1 2.42013 -2.74349 3.69836
 390 1 7.13792 11.4894 -4.59537
 391 1 4.63685 -6.33358 10.1723
 392 1 7.17321 -9.50354 -2.6452
 393 1 -6.97522 6.89569 2.96537
 394 1 -1.34053 6.82762 -0.417165
 395 1 -4.80634 8.73485 10.2172
 396 1 8.7872 10.4099 -5.91409
 397 1 1.22379 3.7535 6.15547
 398 1 7.81517 1.54311 2.03382
 399 1 4.98825 6.0453 2.5355
 400 1 6.70799 7.42251 1.27538
 401 1 1.82501 -0.614937 -5.93448
 402 1 9.68481 -5.49455 -2.68351
 403 1 4.87869 -3.50311 -8.69898
 404 1 -6.81959 -8.93586 -10.7648
 405 1 -1.40273 6.89765 7.30227
 406 1 -10.6625 -11.3875 -2.04709
 407 1 6.82564 -6.19897 4.45737
 408 1 -0.0427573 -9.35548 10.5276
 409 1 -3.49539 3.16429 -9.11089
 410 1 0.341202 6.00192 6.70645
 411 1 8.25733 -3.87197 5.35008
 412 1 4.73452 -2.96523 -7.98007
 413 1 0.535137 -9.08405 4.15377
 414 1 -3.22494 -4.19216 0.839815
 415 1 -7.59952 -4.07693 5.71566
 416 1 2.60964 -0.550781 -11.0967
 417 1 -5.34935 10.4825 1.77218
 418 1 -0.388567 8.9129 3.86108
 419 1 -2.80053 -7.60394 -2.7151
 420 1 -5.97159 8.82998 10.4085
 421 1 3.22315 0.822728 -3.0232
 422 1 -1.04917 -1.43298 10.8085
 423 1 -1.58168 -2.53514 5.9896
 424 1 6.93405 2.82923 6.61116
 425 1 9.85418 -5.9755 -7.02075
 426 1 -1.8974 1.72115 -1.97844
 427 1 0.99121 -3.15271 8.13118
 428 1 11.2857 -5.51365 -0.989899
 429 1 -2.44942 2.42642 5.83001
 430 1 -1.13834 -10.881 9.04865
 431 1 7.93397 8.10571 3.60079
 432 1 -9.2412 -9.64202 1.77582
 433 1 3.55383 11.0639 -1.29308
 434 1 10.009 10.675 0.393503
 435 1 -5.74492 -1.64777 -7.55752
 436 1 5.43795 -0.350783 -1.47625
 437 1 -3.82053 10.9972 9.87906
 438 1 0.960197 -4.12784 -7.93637
 439 1 9.09917 -4.13183 5.62103
 440 1 10.293 10.1058 0.947762
 441 1 -7.47203 -1.73373 -7.79241
 442 1 1.43307 -0.225999 -5.34457
 443 1 -6.66317 -4.70719 7.53409
 444 1 1.33746 -11.1513 -5.94519
 445 1 1.42967 7.63184 4.56605
 446 1 -10.619 -6.80325 -9.4428
 447 1 -6.87098 9.28311 7.32448
 448 1 10.4472 -1.94186 -11.2506
 449 1 2.29445 10.6176 10.9995
 450 1 -10.3113 6.83708 -7.49249
 451 1 6.15266 3.01727 -11.0089
 452 1 -11.5517 -5.44879 5.99637
 453 1 -2.13193 10.1733 4.75749
 454 1 7.70799 7.09291 3.24848
 455 1 -8.07006 -7.70694 9.15506
 456 1 11.4245 -1.32997 -0.691851
 457 1 -3.1316 7.63253 -4.22249
 458 1 1.30309 -5.65186 -11.5247
 459 1 -5.95621 4.88186 6.84485
 460 1 -4.01821 -9.10253 -6.56406
 461 1 -7.76956 0.185543 -2.93276
 462 1 -11.0329 -2.01362 4.04959
 463 1 -8.45957 -0.842992 -0.438315
 464 1 1.3374 -6.50347 2.60075
 465 1 5.51772 -1.14762 -5.21165
 466 1 7.13296 2.16132 8.52594
 467 1 2.29473 1.64652 11.2264
 468 1 -2.97652 7.55994 6.17409
 469 1 -7.85491 -3.80741 3.1991
 470 1 -3.19726 -3.96638 -8.93219
 471 1 7.34967 -2.99457 -0.886784
 472 1 8.82995 -8.57226 6.94237
 473 1 -9.78539 5.44896 -0.830035
 474 1 -0.865939 -4.06316 7.30654
 475 1 -0.236982 5.35626 -1.40066
 476 1 -6.02763 -8.37642 9.96615
 477 1 -9.53202 -5.99856 8.60114
 478 1 -0.682535 4.40249 -5.44164
 479 1 8.20299 -0.465183 11.2044
 480 1 1.6115 10.9448 -1.73608
 481 1 1.18996 6.23154 -3.10987
 482 1 -3.5731 -4.71343 -4.27239
 483 1 8.66661 10.3821 11.0062
 484 1 8.40712 10.6073 2.01857
 485 1 1.59192 8.51622 4.4234
 486 1 2.92002 -2.67567 -11.1909
 487 1 0.326029 4.07907 -2.79965
 488 1 7.23726 -10.9664 3.17011
 489 1 7.58447 2.79924 -9.24695
 490 1 6.2606 0.40516 -6.74626
 491 1 -2.80691 -2.69844 -3.872
 492 1 8.66225 10.2772 2.67256
 493 1 5.22482 1.41627 -6.27668
 494 1 10.5425 8.62821 10.9968
 495 1 8.87222 10.7655 -3.25648
 496 1 1.11541 1.61223 4.34556
 497 1 -2.00449 1.20489 3.40481
 498 1 -9.06093 -3.22026 -5.5894
 499 1 7.83591 -9.75918 -5.17558
 500 1 5.62056 2.90942 3.22354
 501 1 2.60965 -7.58458 11.4587
 502 1 -8.17562 8.19381 11.1468
 503 1 -3.832 1.89227 -1.14931
 504 1 6.63178 9.68751 6.4429
 505 1 -11.2837 1.77257 -10.1366
 506 1 8.57398 -4.27101 -9.45992
 507 1 -1.48126 -2.3837 8.14823
 508 1 -3.82143 3.74205 7.67683
 509 1 -1.30339 -4.19041 -4.77675
 510 1 -1.48445 -1.01968 7.44082
 511 1 0.463048 9.39793 -8.70045
 512 1 10.8549 -4.16437 5.82326
 513 1 -11.5498 7.09061 5.56186
 514 1 -4.66911 9.17765 4.08926
 515 1 -5.4468 -0.197674 9.95287
 516 1 10.669 -6.45882 -6.62527
 517 1 9.87877 -10.1104 -3.03505
 518 1 11.3694 -6.19263 5.342
 519 1 3.55422 -11.2058 -0.902283
 520 1 -0.0514535 -11.1261 -0.651866
 521 1 -3.50681 10.4751 -1.89969
 522 1 -0.878964 -1.26844 -6.13056
 523 1 6.48053 4.08217 -5.38534
 524 1 6.0717 -0.338444 9.84588
 525 1 3.20597 1.94921 7.26297
 526 1 5.41065 2.03738 0.963351
 527 1 2.45509 -3.58057 10.5688
 528 1 5.16806 8.87478 6.10775
 529 1 9.32171 -0.0981632 7.33902
 530 1 3.40695 -6.4118 -2.6049
 531 1 -10.6105 4.924 4.77382
 532 1 -1.85702 5.7149 1.82553
 533 1 11.15 6.99569 -9.65189
 534 1 10.0726 -4.88709 -5.16945
 535 1 -5.15563 -0.790447 2.67627
 536 1 -6.51524 -7.03652 3.19883
 537 1 5.19563 1.29299 -4.1877
 538 1 3.58297 10.5255 -10.2975
 539 1 -11.2894 -2.96991 7.72417
 540 1 1.52774 -8.05459 8.76767
 541 1 -9.95701 -5.31064 -10.993
 542 1 9.81362 -11.5552 3.86822
 543 1 8.47555 -9.44224 -4.88589
 544 1 2.13019 -2.48238 -2.7034
 545 1 -0.569234 1.65918 -2.85114
 546 1 -10.1139 4.59349 -3.11957
 547 1 7.79855 -5.02999 10.571
 548 1 5.35316 9.26375 -11.5521
 549 1 1.96194 -1.24106 -0.536716
 550 1 9.65865 -5.72814 2.49394
 551 1 -0.687624 -6.74655 -8.9414
 552 1 6.86736 -4.39012 -7.77653
 553 1 -4.66342 -3.33787 -4.5882
 554 1 -6.47904 -9.31896 9.72315
 555 1 -2.75715 2.70597 -10.7621
 556 1 -4.65933 0.538925 -4.46086
 557 1 5.28233 -5.7501 0.089271
 558 1 5.26308 -3.06467 -6.21902
 559 1 6.28089 -8.53371 -5.24781
 560 1 11.4834 -3.92352 -10.5911
 561 1 7.08758 8.74382 -2.07105
 562 1 2.80864 9.66819 5.7802
 563 1 -9.85542 10.4467 -11.3956
 564 1 -3.1845 -10.5903 -11.0336
 565 1 -7.01461 3.66549 -0.95227
 566 1 4.79088 -8.68909 -0.686497
 567 1 4.00647 -2.37592 5.63229
 568 1 2.3369 -9.55513 -7.69077
 569 1 8.31265 -6.48446 -10.8707
 570 1 4.96471 -11.0086 -11.2641
 571 1 2.98201 -4.32301 -8.5804
 572 1 -9.83167 -3.20592 10.8918
 573 1 -1.02084 -9.45734 -2.56376
 574 1 8.11993 3.97231 -10.5282
 575 1 -6.95437 10.2478 -9.02058
 576 1 -5.94941 -5.09761 7.56009
 577 1 9.80814 5.25704 7.08384
 578 1 5.13351 -10.1344 9.3684
 579 1 -1.59087 -9.65129 -0.434053
 580 1 -2.46168 1.31154 2.72796
 581 1 -3.39494 10.2469 -4.56763
 582 1 0.478048 -9.51422 -1.98285
 583 1 1.8592 10.033 3.78754
 584 1 4.78697 9.61983 3.73601
 585 1 -1.80651 -4.54014 -10.2688
 586 1 0.501251 -2.27211 -5.6522
 587 1 -10.176 -1.25745 8.75496
 588 1 5.37873 7.08104 -11.2067
 589 1 -0.10915 4.45999 10.7144
 590 1 3.87214 -9.21269 -2.95566
 591 1 -11.2485 3.68161 10.2725
 592 1 9.43973 -4.19362 0.727256
 593 1 -2.8516 6.58894 -8.8845
 594 1 1.93076 -2.06263 1.84295
 595 1 2.74332 -1.98177 3.8785
 596 1 9.34457 1.76906 2.9378
 597 1 7.72071 4.43311 9.27489
 598 1 10.0401 2.83361 -7.25794
 599 1 0.651082 -4.8178 -5.99989
 600 1 -10.5824 -3.35467 8.53607
 601 1 1.53169 -10.9642 1.20181
 602 1 9.53117 9.93403 6.56451
 603 1 6.7104 -10.6672 3.7819
 604 1 -0.0529289 -1.61303 5.57575
 605 1 2.39392 0.0854017 7.97544
 606 1 -4.07124 4.15077 9.65956
 607 1 -3.97734 5.93368 -3.47921
 608 1 5.79648 10.3732 -0.351689
 609 1 9.01831 -7.26177 4.13862
 610 1 3.86925 -9.90163 -4.9456
 611 1 4.14488 -7.306 2.05802
 612 1 -2.00049 -7.77627 -6.88617
 613 1 -5.60881 -5.09139 -5.46432
 614 1 -9.45411 4.52617 -2.75792
 615 1 10.7564 -10.7149 -7.47908
 616 1 -10.9831 -6.73643 9.83043
 617 1 4.13014 5.96095 -10.1604
 618 1 1.81625 1.51096 -0.268021
 619 1 -8.67219 0.0685654 -3.19844
 620 1 -1.50117 4.58552 -10.5524
 621 1 -7.16285 8.79219 4.78558
 622 1 -0.327602 0.861711 4.77889
 623 1 10.1984 -2.18762 0.276729
 624 1 -8.17521 -9.90457 -6.60681
 625 1 0.825745 -5.0644 2.0954
 626 1 2.39293 -10.0528 11.0652
 627 1 -4.24193 -10.9068 5.4106
 628 1 10.8738 4.50235 -0.6932
 629 1 -10.5689 7.95271 9.94511
 630 1 10.6629 0.134173 -2.2584
 631 1 -5.85688 -10.188 -11.456
 632 1 -7.37537 -6.90152 7.45642
 633 1 -2.77733 7.3353 11.2981
 634 1 -7.44911 -4.13559 -3.04295
 635 1 3.22865 10.0873 0.862294
 636 1 11.0058 9.8335 1.3385
 637 1 -9.64377 -7.89782 6.90552
 638 1 -5.42166 -1.09073 9.54774
 639 1 6.04811 0.423291 11.3392
 640 1 6.51926 1.42196 -10.7729
 641 1 9.24313 2.43549 -1.15372
 642 1 3.27731 -10.9683 7.39475
 643 1 0.725693 -7.81379 -6.21915
 644 1 -7.83005 6.53989 2.24271
 645 1 6.62559 7.8989 -0.674711
 646 1 3.4378 7.9108 -4.51166
 647 1 10.132 7.25743 -7.74419
 648 1 -3.96271 4.85574 1.74691
 649 1 -6.93731 8.46 -7.20392
 650 1 -0.866631 -9.98498 -9.99869
 651 1 -1.84179 8.11595 1.60769
 652 1 1.38949 -4.27066 -2.99926
 653 1 2.36184 -11.3831 -8.12621
 654 1 1.48991 -6.55669 -9.24529
 655 1 11.1656 -0.214002 6.96385
 656 1 -10.4867 -0.86019 11.022
 657 1 6.96051 9.48128 -9.50684
 658 1 -11.3887 6.37454 0.105677
 659 1 11.5457 -3.00935 -8.51344
 660 1 8.9778 7.27044 7.98685
 661 1 5.01999 6.43627 -5.07598
 662 1 -9.70376 9.5263 -4.33874
 663 1 4.03715 2.67003 8.65987
 664 1 -11.0861 1.32988 4.70567
 665 1 8.94628 4.6807 -0.601677
 666 1 1.91933 -4.50231 -10.7445
 667 1 5.61853 1.00633 -8.78381
 668 1 2.11862 1.65609 10.3487
 669 1 -3.81103 -7.03864 2.8098
 670 1 -7.39761 -11.4406 7.42932
 671 1 -11.3688 4.63232 -2.10605
 672 1 0.237012 2.33446 8.95032
 673 1 -5.00452 -2.09547 -3.96107
 674 1 -3.43765 0.703782 -8.73313
 675 1 7.83756 -10.9811 9.42931
 676 1 -5.02809 6.8647 -11.3209
 677 1 -0.320783 -9.59307 -5.41919
 678 1 10.8856 9.07971 -1.04912
 679 1 9.43995 3.17998 -6.86589
 680 1 -3.86215 -11.1965 -10.5658
 681 1 -7.94677 -4.76281 -8.92486
 682 1 -6.91368 -8.54048 -2.32062
 683 1 -5.16014 -1.1425 -9.68284
 684 1 9.53458 -7.43722 -8.93554
 685 1 -1.10449 -3.79062 1.82977
 686 1 -3.05706 -4.83151 -3.67674
 687 1 -8.13634 6.09625 11.5393
 688 1 -0.812843 -5.2808 3.72494
 689 1 -1.44226 -5.06368 0.0199979
 690 1 -3.10016 -8.54855 -2.31102
 691 1 8.66535 -3.79331 -10.654
 692 1 -6.44161 -1.17782 6.55636
 693 1 8.37599 2.18993 11.3746
 694 1 2.72478 4.32001 -9.24503
 695 1 6.16204 -6.93358 -5.00141
 696 1 8.83476 9.65745 7.03625
 697 1 0.126728 -1.39731 -6.97545
 698 1 6.71325 -3.45618 9.47481
 699 1 9.981 11.4647 -0.102401
 700 1 -6.4868 2.70428 -10.2872
 701 1 8.82281 6.54334 5.21103
 702 1 -7.39823 3.5822 -3.066
 703 1 -4.01628 -4.22905 -9.05123
 704 1 -8.52903 6.81849 -5.91098
 705 1 -6.02756 -2.29814 -11.2735
 706 1 -11.5501 4.95368 3.39061
 707 1 0.354017 2.11361 11.2713
 708 1 2.00333 9.17859 8.66843
 709 1 -11.3211 -3.66616 -6.05086
 710 1 -0.901545 10.9877 -8.18306
 711 1 11.0543 7.74224 1.78509
 712 1 -4.1732 -6.26101 4.22317
 713 1 9.18063 2.85801 -4.88606
 714 1 6.87622 -3.25416 5.21611
 715 1 10.4407 11.2102 3.65046
 716 1 -10.5779 1.23361 -2.84436
 717 1 -10.1691 9.92556 2.71942
 718 1 -10.7529 8.29819 4.47226
 719 1 -9.42593 -10.5071 -4.13402
 720 1 -7.8689 2.31359 7.70919
 721 1 -2.6066 -2.66617 -5.71888
 722 1 -1.14496 2.77685 -5.49722
 723 1 7.92921 10.659 4.98658
 724 1 7.40643 -10.2298 -6.11147
 725 1 1.03656 -9.1579 -1.22029
 726 1 4.45999 10.3138 3.57727
 727 1 -9.29677 6.64712 -8.68286
 728 1 -0.343805 7.76486 5.55192
 729 1 9.67011 9.94585 -5.08515
 730 1 -10.4284 -2.74946 0.334296
 731 1 -7.01323 -4.75718 9.76524
 732 1 -5.8747 2.29277 -9.91287
 733 1 -2.2351 0.857086 9.66207
 734 1 -9.08313 -10.2664 -9.03554
 735 1 -4.84926 -3.88439 -2.66029
 736 1 -1.12637 10.1937 1.60611
 737 1 -2.49961 -7.80926 9.101
 738 1 7.17338 9.5969 -3.28754
 739 1 -1.84212 -2.15661 -0.592666
 740 1 -3.86969 9.09735 -10.9331
 741 1 4.9737 0.7318 -9.2773
 742 1 -4.8867 8.95594 -0.704014
 743 1 -4.15582 -6.24121 9.94883
 744 1 0.238342 10.5963 2.58716
 745 1 7.79225 -1.02421 -11.2835
 746 1 0.793393 -8.16141 -10.6917
 747 1 5.35658 3.26718 -3.1762
 748 1 3.71264 -6.29528 -9.50443
 749 1 5.6171 10.5485 -9.44947
 750 1 4.02414 4.31111 5.65097
 751 1 -4.22339 -6.80993 1.37138
 752 1 -10.7119 -7.27495 0.502932
 753 1 -0.170058 -10.1166 -4.76548
 754 1 -4.34441 -2.28683 -1.92742
 755 1 -0.100825 4.56897 8.39249
 756 1 -1.92764 -0.295984 8.29375
 757 1 -10.721 -10.3483 -7.18319
 758 1 -6.61782 -0.558969 7.55758
 759 1 -4.0586 -5.74282 8.41767
 760 1 -11.5284 -1.75619 9.85232
 761 1 11.3197 -10.8826 1.66537
 762 1 -2.91093 3.5081 -2.93093
 763 1 4.98916 -8.60844 -6.98191
 764 1 7.25328 6.97776 -4.1238
 765 1 -8.97505 -9.76843 -6.51453
 766 1 7.04829 -6.58797 3.8813
 767 1 -10.278 -4.28842 -8.14135
 768 1 -2.6533 -6.04298 -8.42893
 769 1 4.94321 -9.7686 -9.15317
 770 1 6.55139 -2.97737 -1.32754
 771 1 0.350896 7.67732 -6.51408
 772 1 2.36897 -1.28338 1.7587
 773 1 7.0705 -2.7802 4.37616
 774 1 -10.5547 2.63667 -1.94008
 775 1 10.6492 8.79957 -7.33229
 776 1 2.71587 6.1001 -5.79621
 777 1 -6.4424 5.65388 10.783
 778 1 10.3123 -8.89031 6.95015
 779 1 7.32436 6.33998 3.09817
 780 1 7.37147 11.5165 -1.58414
 781 1 -10.1925 -0.580363 2.3763
 782 1 -0.223407 8.39869 6.11411
 783 1 9.74881 -1.37058 8.73132
 784 1 -0.584091 11.2427 -0.955977
 785 1 5.1803 1.47375 6.10225
 786 1 -2.67263 3.84766 5.27052
 787 1 -0.280899 4.9669 3.89963
 788 1 8.85878 -5.20144 -9.95773
 789 1 3.70533 2.52912 -1.06108
 790 1 -10.4405 9.12487 -4.65089
 791 1 -5.05828 2.63396 -3.76797
 792 1 -5.54796 7.14947 3.31998
 793 1 4.18068 -10.1329 -11.3361
 794 1 7.37591 1.20083 8.73469
 795 1 -9.28034 0.364015 -9.20293
 796 1 -2.14869 -0.411651 -1.67803
 797 1 -3.33456 3.03339 -4.81718
 798 1 -10.1397 -4.46144 2.26294
 799 1 10.0459 -0.904818 -5.11128
 800 1 5.96677 1.9817 -1.96693
 801 1 8.98281 -7.701 3.486
 802 1 -6.69538 -10.4594 2.08561
 803 1 9.48753 -1.45299 -9.06967
 804 1 -11.3127 8.7675 -5.0566
 805 1 7.40192 1.98505 -7.48311
 806 1 6.27567 10.3848 -9.81514
 807 1 -8.28612 8.82298 -9.76686
 808 1 7.85731 -5.04484 -1.71021
 809 1 -10.7386 -10.4117 -6.43501
 810 1 11.4749 8.55366 -3.01116
 811 1 -8.1714 4.2099 9.47905
 812 1 0.987254 6.27538 6.94198
 813 1 -8.359 -2.01654 -8.19503
 814 1 -5.25536 10.8957 -10.2564
 815 1 -7.18997 6.14353 -1.85202
 816 1 1.71079 2.29263 4.4475
 817 1 4.34422 3.45688 6.12984
 818 1 6.15009 -8.32567 -10.316
 819 1 -9.14381 6.88314 5.07016
 820 1 -6.11602 -9.6314 2.12425
 821 1 4.31668 6.58211 0.0370412
 822 1 -2.53845 -4.83947 -2.92466
 823 1 9.88866 0.391251 5.03142
 824 1 3.32376 2.63912 5.0474
 825 1 6.55674 -5.13447 -11.4289
 826 1 9.3509 -3.15107 -1.57789
 827 1 -4.34913 1.74338 9.41224
 828 1 -1.54048 1.93421 -4.95863
 829 1 -3.8362 7.92292 -7.19526
 830 1 -8.61654 -8.64465 10.0825
 831 1 -5.9559 -5.6049 -5.98854
 832 1 -4.13739 6.67178 0.821179
 833 1 0.105625 -3.58709 -10.9457
 834 1 3.05998 4.16073 -7.50779
 835 1 9.96729 -6.28117 10.9149
 836 1 7.97428 6.87646 10.8064
 837 1 6.64382 -3.31008 6.20257
 838 1 -11.181 7.87392 -0.536557
 839 1 -9.48869 -1.10837 2.41455
 840 1 3.7426 -4.68634 5.40504
 841 1 -9.48632 -2.38877 0.543651
 842 1 -4.40503 -3.70204 -6.78383
 843 1 -0.394436 0.803755 -0.44531
 844 1 -6.1897 5.86409 4.84387
 845 1 -3.77193 -1.48003 6.78327
 846 1 5.83183 -5.29237 6.22888
 847 1 0.513142 -6.37441 7.19897
 848 1 -4.54441 9.13662 -3.16161
 849 1 -1.08265 7.42355 7.91383
 850 1 -1.71035 2.50518 11.4361
 851 1 6.9448 -3.50184 -3.16015
 852 1 -7.72902 -9.56631 8.43654
 853 1 -3.97936 11.3018 -1.84146
 854 1 3.03929 3.7629 0.238682
 855 1 3.86168 3.89617 -11.2186
 856 1 -7.84434 -10.8897 11.4814
 857 1 11.0515 -4.57158 -1.044
 858 1 9.91007 6.4332 -1.41823
 859 1 -1.58518 6.2896 4.08349
 860 1 -9.76264 2.94109 -6.69937
 861 1 10.3096 4.89262 -3.65133
 862 1 1.10573 -11.4672 -9.78269
 863 1 -3.67992 -5.10776 5.81667
 864 1 5.48772 9.18354 3.87313
 865 1 -10.8252 8.65383 9.49013
 866 1 -1.12846 -4.35397 -0.301492
 867 1 -6.24184 -6.29885 -4.43202
 868 1 6.74864 -2.9262 10.3019
 869 1 -3.99006 5.43418 -4.02153
 870 1 7.57263 1.27208 -4.12545
 871 1 -2.03803 -8.68749 11.4374
 872 1 5.31693 -2.47796 -6.79209
 873 1 6.30726 11.3128 -4.52668
 874 1 1.99599 4.29311 6.09033
 875 1 10.1669 10.0072 8.75851
 876 1 1.56815 -5.9419 -1.50879
 877 1 1.4438 4.55557 8.98463
 878 1 6.57755 -5.48322 -10.5727
 879 1 -4.89007 -7.4533 -8.21638
 880 1 -9.59101 4.8984 -9.72983
 881 1 -6.38594 0.0276379 -9.22571
 882 1 -1.01008 -10.8055 1.27864
 883 1 0.0984537 -6.00954 -3.45841
 884 1 -8.30244 -6.2222 6.26402
 885 1 -0.249746 3.7122 -3.13377
 886 1 5.49626 1.62297 5.18753
 887 1 1.24591 0.140679 0.899165
 888 1 -10.0371 5.88121 6.64453
 889 1 0.640995 -6.52444 0.21356
 890 1 -3.27824 -4.42896 -11.2239
 891 1 -0.263292 -9.31654 -10.1891
 892 1 5.79142 -2.95052 -3.08338
 893 1 1.42761 -10.7539 9.32623
 894 1 -8.83634 -11.3234 -0.382231
 895 1 -2.64652 -11.0317 -7.91712
 896 1 -6.16368 -3.28443 -9.02662
 897 1 2.07462 0.30595 3.1603
 898 1 0.42124 7.52436 -5.50728
 899 1 4.46016 -10.6599 9.07552
 900 1 7.42768 1.00713 4.07997
 901 1 -10.5703 10.9491 7.69588
 902 1 -9.83451 0.124183 -1.15683
 903 1 8.96639 -0.680083 2.58411
 904 1 2.53341 -2.15846 -9.39839
 905 1 7.73244 -8.98236 4.85521
 906 1 -10.8591 6.04353 -4.50577
 907 1 -10.919 7.03814 -7.16919
 908 1 -2.87249 10.0496 -1.90196
 909 1 8.40201 -4.76378 3.56976
 910 1 5.48337 -5.93371 -6.88878
 911 1 -10.587 -6.39708 -7.85886
 912 1 -5.20443 -3.34248 0.474056
 913 1 -2.60361 -0.130043 -3.12979
 914 1 11.178 1.95734 -6.32296
 915 1 -0.864733 -1.496 -4.13742
 916 1 -4.88096 -9.25399 -6.94917
 917 1 -10.0731 0.667168 -0.544153
 918 1 -5.00696 11.4793 10.6354
 919 1 -2.61176 9.37092 -1.95593
 920 1 -9.5499 -10.5387 9.01201
 921 1 -3.89542 -1.79699 10.9143
 922 1 3.6855 7.83049 4.64472
 923 1 -6.49081 5.18867 1.51364